declare -x SLURMD_NODENAME="cpn-c05-04"
declare -x SLURMTMPDIR="/scratch/23127113"
declare -x SLURM_CLUSTER_NAME="faculty"
declare -x SLURM_CONF="/var/spool/slurmd/conf-cache/slurm.conf"
declare -x SLURM_CPUS_ON_NODE="4"
declare -x SLURM_GTIDS="0"
declare -x SLURM_JOBID="23127113"
declare -x SLURM_JOB_ACCOUNT="jochena"
declare -x SLURM_JOB_CPUS_PER_NODE="4"
declare -x SLURM_JOB_END_TIME="1777870353"
declare -x SLURM_JOB_GID="89252725"
declare -x SLURM_JOB_ID="23127113"
declare -x SLURM_JOB_NAME="Pyraz_cd_200_full"
declare -x SLURM_JOB_NODELIST="cpn-c05-04"
declare -x SLURM_JOB_NUM_NODES="1"
declare -x SLURM_JOB_PARTITION="jochena"
declare -x SLURM_JOB_QOS="jochena"
declare -x SLURM_JOB_START_TIME="1777868553"
declare -x SLURM_JOB_UID="89252725"
declare -x SLURM_JOB_USER="akramer9"
declare -x SLURM_LOCALID="0"
declare -x SLURM_MEM_PER_CPU="2800"
declare -x SLURM_NNODES="1"
declare -x SLURM_NODEID="0"
declare -x SLURM_NODELIST="cpn-c05-04"
declare -x SLURM_NPROCS="4"
declare -x SLURM_NTASKS="4"
declare -x SLURM_NTASKS_PER_NODE="4"
declare -x SLURM_PRIO_PROCESS="0"
declare -x SLURM_PROCID="0"
declare -x SLURM_SCRIPT_CONTEXT="prolog_task"
declare -x SLURM_SUBMIT_DIR="/projects/academic/jochena/akramer9/Favereau_MCD_Collab/MCD_Tests/CHECK/Gaussian_Scripts"
declare -x SLURM_SUBMIT_HOST="login1.cbls.ccr.buffalo.edu"
declare -x SLURM_TASKS_PER_NODE="4"
declare -x SLURM_TASK_PID="182105"
declare -x SLURM_TOPOLOGY_ADDR="core-fabric.leaf-catlin-5.cpn-c05-04"
declare -x SLURM_TOPOLOGY_ADDR_PATTERN="switch.switch.node"

Currently Loaded Modules:
  1) ccrenv         (H)        3) ccrsoft/2023.01       (S)
  2) gentoo/2023.01 (H,S,os)   4) gaussian/16.C.02-AVX2 (chem)

  Where:
   H:     Hidden Module
   S:     Module is Sticky, requires --force to unload or purge
   chem:  Chemistry libraries/apps
   os:    Base OS

 

/projects/academic/jochena/software/easybuild/2023.01/software/Core/gaussian/16.C.02-AVX2/g16/g16
 Entering Gaussian System, Link 0=g16
 Initial command:
 /projects/academic/jochena/software/easybuild/2023.01/software/Core/gaussian/16.C.02-AVX2/g16/l1.exe "/scratch/23127113/Gau-182200.inp" -scrdir="/scratch/23127113/"
 Entering Link 1 = /projects/academic/jochena/software/easybuild/2023.01/software/Core/gaussian/16.C.02-AVX2/g16/l1.exe PID=    182202.
  
 Copyright (c) 1988-2021, Gaussian, Inc.  All Rights Reserved.
  
 This is part of the Gaussian(R) 16 program.  It is based on
 the Gaussian(R) 09 system (copyright 2009, Gaussian, Inc.),
 the Gaussian(R) 03 system (copyright 2003, Gaussian, Inc.),
 the Gaussian(R) 98 system (copyright 1998, Gaussian, Inc.),
 the Gaussian(R) 94 system (copyright 1995, Gaussian, Inc.),
 the Gaussian 92(TM) system (copyright 1992, Gaussian, Inc.),
 the Gaussian 90(TM) system (copyright 1990, Gaussian, Inc.),
 the Gaussian 88(TM) system (copyright 1988, Gaussian, Inc.),
 the Gaussian 86(TM) system (copyright 1986, Carnegie Mellon
 University), and the Gaussian 82(TM) system (copyright 1983,
 Carnegie Mellon University). Gaussian is a federally registered
 trademark of Gaussian, Inc.
  
 This software contains proprietary and confidential information,
 including trade secrets, belonging to Gaussian, Inc.
  
 This software is provided under written license and may be
 used, copied, transmitted, or stored only in accord with that
 written license.
  
 The following legend is applicable only to US Government
 contracts under FAR:
  
                    RESTRICTED RIGHTS LEGEND
  
 Use, reproduction and disclosure by the US Government is
 subject to restrictions as set forth in subparagraphs (a)
 and (c) of the Commercial Computer Software - Restricted
 Rights clause in FAR 52.227-19.
  
 Gaussian, Inc.
 340 Quinnipiac St., Bldg. 40, Wallingford CT 06492
  
  
 ---------------------------------------------------------------
 Warning -- This program may not be used in any manner that
 competes with the business of Gaussian, Inc. or will provide
 assistance to any competitor of Gaussian, Inc.  The licensee
 of this program is prohibited from giving any competitor of
 Gaussian, Inc. access to this program.  By using this program,
 the user acknowledges that Gaussian, Inc. is engaged in the
 business of creating and licensing software in the field of
 computational chemistry and represents and warrants to the
 licensee that it is not a competitor of Gaussian, Inc. and that
 it will not use this program in any manner prohibited above.
 ---------------------------------------------------------------
  

 Cite this work as:
 Gaussian 16, Revision C.02,
 M. J. Frisch, G. W. Trucks, H. B. Schlegel, G. E. Scuseria, 
 M. A. Robb, J. R. Cheeseman, G. Scalmani, V. Barone, 
 G. A. Petersson, H. Nakatsuji, X. Li, M. Caricato, A. V. Marenich, 
 J. Bloino, B. G. Janesko, R. Gomperts, B. Mennucci, H. P. Hratchian, 
 J. V. Ortiz, A. F. Izmaylov, J. L. Sonnenberg, D. Williams-Young, 
 F. Ding, F. Lipparini, F. Egidi, J. Goings, B. Peng, A. Petrone, 
 T. Henderson, D. Ranasinghe, V. G. Zakrzewski, J. Gao, N. Rega, 
 G. Zheng, W. Liang, M. Hada, M. Ehara, K. Toyota, R. Fukuda, 
 J. Hasegawa, M. Ishida, T. Nakajima, Y. Honda, O. Kitao, H. Nakai, 
 T. Vreven, K. Throssell, J. A. Montgomery, Jr., J. E. Peralta, 
 F. Ogliaro, M. J. Bearpark, J. J. Heyd, E. N. Brothers, K. N. Kudin, 
 V. N. Staroverov, T. A. Keith, R. Kobayashi, J. Normand, 
 K. Raghavachari, A. P. Rendell, J. C. Burant, S. S. Iyengar, 
 J. Tomasi, M. Cossi, J. M. Millam, M. Klene, C. Adamo, R. Cammi, 
 J. W. Ochterski, R. L. Martin, K. Morokuma, O. Farkas, 
 J. B. Foresman, and D. J. Fox, Gaussian, Inc., Wallingford CT, 2019.
 
 ******************************************
 Gaussian 16:  ES64L-G16RevC.02  7-Dec-2021
                 4-May-2026 
 ******************************************
 %NProc=4
 Will use up to    4 processors via shared memory.
 %Mem=8000Mb
 %chk=/projects/academic/jochena/akramer9/Favereau_MCD_Collab/MCD_Tests/Pyraz_cd_
 200_full.chk
 -----------------------------------------------------------
 #P B3LYP/6-311++G(d,p) TD=(NStates=200) IOp(9/40=5) gfinput
 -----------------------------------------------------------
 1/38=1,172=1/1;
 2/12=2,17=6,18=5,40=1/2;
 3/5=4,6=6,7=1111,11=9,24=10,25=1,30=1,74=-5/1,2,3,8;
 4//1;
 5/5=2,38=5/2;
 8/6=1,10=2,108=200/1;
 9/40=5,41=200,42=1,70=2/14;
 6/7=2,8=2,9=2,10=2/1;
 99/5=1,9=1/99;
 Leave Link    1 at Mon May  4 00:22:35 2026, MaxMem=  1048576000 cpu:               0.1 elap:               0.1
 (Enter /projects/academic/jochena/software/easybuild/2023.01/software/Core/gaussian/16.C.02-AVX2/g16/l101.exe)
 -----------------
 Pyraz_cd_300_full
 -----------------
 Symbolic Z-matrix:
 Charge =  0 Multiplicity = 1
 C                     1.192    -0.59648   0. 
 N                     1.19397   0.73769   0. 
 C                    -0.00007   1.33292   0. 
 C                     0.       -1.33288   0. 
 C                    -1.192     0.59641   0. 
 N                    -1.19416  -0.73781   0. 
 H                     2.16611  -1.10214   0. 
 H                    -0.01641   2.43033   0. 
 H                    -2.16521   1.10265   0. 
 H                     0.01727  -2.42974   0. 
 
 ITRead=  0  0  0  0  0  0  0  0  0  0
 MicOpt= -1 -1 -1 -1 -1 -1 -1 -1 -1 -1
 NAtoms=     10 NQM=       10 NQMF=       0 NMMI=      0 NMMIF=      0
                NMic=       0 NMicF=      0.
                    Isotopes and Nuclear Properties:
 (Nuclear quadrupole moments (NQMom) in fm**2, nuclear magnetic moments (NMagM)
  in nuclear magnetons)

  Atom         1           2           3           4           5           6           7           8           9          10
 IAtWgt=          12          14          12          12          12          14           1           1           1           1
 AtmWgt=  12.0000000  14.0030740  12.0000000  12.0000000  12.0000000  14.0030740   1.0078250   1.0078250   1.0078250   1.0078250
 NucSpn=           0           2           0           0           0           2           1           1           1           1
 AtZEff=  -0.0000000  -0.0000000  -0.0000000  -0.0000000  -0.0000000  -0.0000000  -0.0000000  -0.0000000  -0.0000000  -0.0000000
 NQMom=    0.0000000   2.0440000   0.0000000   0.0000000   0.0000000   2.0440000   0.0000000   0.0000000   0.0000000   0.0000000
 NMagM=    0.0000000   0.4037610   0.0000000   0.0000000   0.0000000   0.4037610   2.7928460   2.7928460   2.7928460   2.7928460
 AtZNuc=   6.0000000   7.0000000   6.0000000   6.0000000   6.0000000   7.0000000   1.0000000   1.0000000   1.0000000   1.0000000
 Leave Link  101 at Mon May  4 00:22:35 2026, MaxMem=  1048576000 cpu:               0.2 elap:               0.3
 (Enter /projects/academic/jochena/software/easybuild/2023.01/software/Core/gaussian/16.C.02-AVX2/g16/l202.exe)
                          Input orientation:                          
 ---------------------------------------------------------------------
 Center     Atomic      Atomic             Coordinates (Angstroms)
 Number     Number       Type             X           Y           Z
 ---------------------------------------------------------------------
      1          6           0        1.192000   -0.596480    0.000000
      2          7           0        1.193970    0.737690    0.000000
      3          6           0       -0.000070    1.332920    0.000000
      4          6           0        0.000000   -1.332880    0.000000
      5          6           0       -1.192000    0.596410    0.000000
      6          7           0       -1.194160   -0.737810    0.000000
      7          1           0        2.166110   -1.102140    0.000000
      8          1           0       -0.016410    2.430330    0.000000
      9          1           0       -2.165210    1.102650    0.000000
     10          1           0        0.017270   -2.429740    0.000000
 ---------------------------------------------------------------------
                    Distance matrix (angstroms):
                    1          2          3          4          5
     1  C    0.000000
     2  N    1.334171   0.000000
     3  C    2.267954   1.334178   0.000000
     4  C    1.401124   2.390152   2.665800   0.000000
     5  C    2.665791   2.390149   1.401122   2.267824   0.000000
     6  N    2.390342   2.807181   2.390350   1.334214   1.334222
     7  H    1.097535   2.080873   3.259118   2.178365   3.763240
     8  H    3.259115   2.080877   1.097532   3.763246   2.178365
     9  H    3.762699   3.378947   2.177351   3.258825   1.097003
    10  H    2.177345   3.378940   3.762700   1.096996   3.258822
                    6          7          8          9         10
     6  N    0.000000
     7  H    3.379963   0.000000
     8  H    3.379971   4.152317   0.000000
     9  H    2.080921   4.860188   2.525881   0.000000
    10  H    2.080911   2.525873   4.860187   4.152228   0.000000
 Stoichiometry    C4H4N2
 Framework group  CS[SG(C4H4N2)]
 Deg. of freedom    17
 Full point group                 CS      NOp   2
 Largest Abelian subgroup         CS      NOp   2
 Largest concise Abelian subgroup C1      NOp   1
                         Standard orientation:                         
 ---------------------------------------------------------------------
 Center     Atomic      Atomic             Coordinates (Angstroms)
 Number     Number       Type             X           Y           Z
 ---------------------------------------------------------------------
      1          6           0       -0.000066   -1.332912    0.000000
      2          7           0        1.193970   -0.737688    0.000000
      3          6           0        1.192004    0.596488    0.000000
      4          6           0       -1.192003   -0.596409    0.000000
      5          6           0       -0.000000    1.332879    0.000000
      6          7           0       -1.194166    0.737803    0.000000
      7          1           0       -0.016407   -2.430325    0.000000
      8          1           0        2.166111    1.102147    0.000000
      9          1           0        0.017262    2.429747    0.000000
     10          1           0       -2.165202   -1.102653    0.000000
 ---------------------------------------------------------------------
 Rotational constants (GHZ):           6.3894288           5.9343457           3.0767424
 Leave Link  202 at Mon May  4 00:22:36 2026, MaxMem=  1048576000 cpu:               0.0 elap:               0.0
 (Enter /projects/academic/jochena/software/easybuild/2023.01/software/Core/gaussian/16.C.02-AVX2/g16/l301.exe)
 Standard basis: 6-311++G(d,p) (5D, 7F)
 Ernie: Thresh=  0.10000D-02 Tol=  0.10000D-05 Strict=F.
 AO basis set in the form of general basis input (Overlap normalization):
      1 0
 S   6 1.00       0.000000000000
      0.4563240000D+04  0.1966650249D-02
      0.6820240000D+03  0.1523060193D-01
      0.1549730000D+03  0.7612690966D-01
      0.4445530000D+02  0.2608010331D+00
      0.1302900000D+02  0.6164620782D+00
      0.1827730000D+01  0.2210060280D+00
 SP   3 1.00       0.000000000000
      0.2096420000D+02  0.1146600807D+00  0.4024869267D-01
      0.4803310000D+01  0.9199996477D+00  0.2375939567D+00
      0.1459330000D+01 -0.3030682134D-02  0.8158538515D+00
 SP   1 1.00       0.000000000000
      0.4834560000D+00  0.1000000000D+01  0.1000000000D+01
 SP   1 1.00       0.000000000000
      0.1455850000D+00  0.1000000000D+01  0.1000000000D+01
 SP   1 1.00       0.000000000000
      0.4380000000D-01  0.1000000000D+01  0.1000000000D+01
 D   1 1.00       0.000000000000
      0.6260000000D+00  0.1000000000D+01
 ****
      2 0
 S   6 1.00       0.000000000000
      0.6293480000D+04  0.1969788147D-02
      0.9490440000D+03  0.1496128592D-01
      0.2187760000D+03  0.7350053084D-01
      0.6369160000D+02  0.2489367658D+00
      0.1882820000D+02  0.6024594331D+00
      0.2720230000D+01  0.2562017589D+00
 SP   3 1.00       0.000000000000
      0.3063310000D+02  0.1119060795D+00  0.3831191864D-01
      0.7026140000D+01  0.9216666549D+00  0.2374031155D+00
      0.2112050000D+01 -0.2569191826D-02  0.8175923978D+00
 SP   1 1.00       0.000000000000
      0.6840090000D+00  0.1000000000D+01  0.1000000000D+01
 SP   1 1.00       0.000000000000
      0.2008780000D+00  0.1000000000D+01  0.1000000000D+01
 SP   1 1.00       0.000000000000
      0.6390000000D-01  0.1000000000D+01  0.1000000000D+01
 D   1 1.00       0.000000000000
      0.9130000000D+00  0.1000000000D+01
 ****
      3 0
 S   6 1.00       0.000000000000
      0.4563240000D+04  0.1966650249D-02
      0.6820240000D+03  0.1523060193D-01
      0.1549730000D+03  0.7612690966D-01
      0.4445530000D+02  0.2608010331D+00
      0.1302900000D+02  0.6164620782D+00
      0.1827730000D+01  0.2210060280D+00
 SP   3 1.00       0.000000000000
      0.2096420000D+02  0.1146600807D+00  0.4024869267D-01
      0.4803310000D+01  0.9199996477D+00  0.2375939567D+00
      0.1459330000D+01 -0.3030682134D-02  0.8158538515D+00
 SP   1 1.00       0.000000000000
      0.4834560000D+00  0.1000000000D+01  0.1000000000D+01
 SP   1 1.00       0.000000000000
      0.1455850000D+00  0.1000000000D+01  0.1000000000D+01
 SP   1 1.00       0.000000000000
      0.4380000000D-01  0.1000000000D+01  0.1000000000D+01
 D   1 1.00       0.000000000000
      0.6260000000D+00  0.1000000000D+01
 ****
      4 0
 S   6 1.00       0.000000000000
      0.4563240000D+04  0.1966650249D-02
      0.6820240000D+03  0.1523060193D-01
      0.1549730000D+03  0.7612690966D-01
      0.4445530000D+02  0.2608010331D+00
      0.1302900000D+02  0.6164620782D+00
      0.1827730000D+01  0.2210060280D+00
 SP   3 1.00       0.000000000000
      0.2096420000D+02  0.1146600807D+00  0.4024869267D-01
      0.4803310000D+01  0.9199996477D+00  0.2375939567D+00
      0.1459330000D+01 -0.3030682134D-02  0.8158538515D+00
 SP   1 1.00       0.000000000000
      0.4834560000D+00  0.1000000000D+01  0.1000000000D+01
 SP   1 1.00       0.000000000000
      0.1455850000D+00  0.1000000000D+01  0.1000000000D+01
 SP   1 1.00       0.000000000000
      0.4380000000D-01  0.1000000000D+01  0.1000000000D+01
 D   1 1.00       0.000000000000
      0.6260000000D+00  0.1000000000D+01
 ****
      5 0
 S   6 1.00       0.000000000000
      0.4563240000D+04  0.1966650249D-02
      0.6820240000D+03  0.1523060193D-01
      0.1549730000D+03  0.7612690966D-01
      0.4445530000D+02  0.2608010331D+00
      0.1302900000D+02  0.6164620782D+00
      0.1827730000D+01  0.2210060280D+00
 SP   3 1.00       0.000000000000
      0.2096420000D+02  0.1146600807D+00  0.4024869267D-01
      0.4803310000D+01  0.9199996477D+00  0.2375939567D+00
      0.1459330000D+01 -0.3030682134D-02  0.8158538515D+00
 SP   1 1.00       0.000000000000
      0.4834560000D+00  0.1000000000D+01  0.1000000000D+01
 SP   1 1.00       0.000000000000
      0.1455850000D+00  0.1000000000D+01  0.1000000000D+01
 SP   1 1.00       0.000000000000
      0.4380000000D-01  0.1000000000D+01  0.1000000000D+01
 D   1 1.00       0.000000000000
      0.6260000000D+00  0.1000000000D+01
 ****
      6 0
 S   6 1.00       0.000000000000
      0.6293480000D+04  0.1969788147D-02
      0.9490440000D+03  0.1496128592D-01
      0.2187760000D+03  0.7350053084D-01
      0.6369160000D+02  0.2489367658D+00
      0.1882820000D+02  0.6024594331D+00
      0.2720230000D+01  0.2562017589D+00
 SP   3 1.00       0.000000000000
      0.3063310000D+02  0.1119060795D+00  0.3831191864D-01
      0.7026140000D+01  0.9216666549D+00  0.2374031155D+00
      0.2112050000D+01 -0.2569191826D-02  0.8175923978D+00
 SP   1 1.00       0.000000000000
      0.6840090000D+00  0.1000000000D+01  0.1000000000D+01
 SP   1 1.00       0.000000000000
      0.2008780000D+00  0.1000000000D+01  0.1000000000D+01
 SP   1 1.00       0.000000000000
      0.6390000000D-01  0.1000000000D+01  0.1000000000D+01
 D   1 1.00       0.000000000000
      0.9130000000D+00  0.1000000000D+01
 ****
      7 0
 S   3 1.00       0.000000000000
      0.3386500000D+02  0.2549381454D-01
      0.5094790000D+01  0.1903731086D+00
      0.1158790000D+01  0.8521614860D+00
 S   1 1.00       0.000000000000
      0.3258400000D+00  0.1000000000D+01
 S   1 1.00       0.000000000000
      0.1027410000D+00  0.1000000000D+01
 S   1 1.00       0.000000000000
      0.3600000000D-01  0.1000000000D+01
 P   1 1.00       0.000000000000
      0.7500000000D+00  0.1000000000D+01
 ****
      8 0
 S   3 1.00       0.000000000000
      0.3386500000D+02  0.2549381454D-01
      0.5094790000D+01  0.1903731086D+00
      0.1158790000D+01  0.8521614860D+00
 S   1 1.00       0.000000000000
      0.3258400000D+00  0.1000000000D+01
 S   1 1.00       0.000000000000
      0.1027410000D+00  0.1000000000D+01
 S   1 1.00       0.000000000000
      0.3600000000D-01  0.1000000000D+01
 P   1 1.00       0.000000000000
      0.7500000000D+00  0.1000000000D+01
 ****
      9 0
 S   3 1.00       0.000000000000
      0.3386500000D+02  0.2549381454D-01
      0.5094790000D+01  0.1903731086D+00
      0.1158790000D+01  0.8521614860D+00
 S   1 1.00       0.000000000000
      0.3258400000D+00  0.1000000000D+01
 S   1 1.00       0.000000000000
      0.1027410000D+00  0.1000000000D+01
 S   1 1.00       0.000000000000
      0.3600000000D-01  0.1000000000D+01
 P   1 1.00       0.000000000000
      0.7500000000D+00  0.1000000000D+01
 ****
     10 0
 S   3 1.00       0.000000000000
      0.3386500000D+02  0.2549381454D-01
      0.5094790000D+01  0.1903731086D+00
      0.1158790000D+01  0.8521614860D+00
 S   1 1.00       0.000000000000
      0.3258400000D+00  0.1000000000D+01
 S   1 1.00       0.000000000000
      0.1027410000D+00  0.1000000000D+01
 S   1 1.00       0.000000000000
      0.3600000000D-01  0.1000000000D+01
 P   1 1.00       0.000000000000
      0.7500000000D+00  0.1000000000D+01
 ****

 There are   126 symmetry adapted cartesian basis functions of A'  symmetry.
 There are    40 symmetry adapted cartesian basis functions of A"  symmetry.
 There are   120 symmetry adapted basis functions of A'  symmetry.
 There are    40 symmetry adapted basis functions of A"  symmetry.
   160 basis functions,   252 primitive gaussians,   166 cartesian basis functions
    21 alpha electrons       21 beta electrons
       nuclear repulsion energy       208.4238237747 Hartrees.
 IExCor=  402 DFT=T Ex+Corr=B3LYP ExCW=0 ScaHFX=  0.200000
 ScaDFX=  0.800000  0.720000  1.000000  0.810000 ScalE2=  1.000000  1.000000
 IRadAn=      5 IRanWt=     -1 IRanGd=            0 ICorTp=0 IEmpDi=  4
 NAtoms=   10 NActive=   10 NUniq=   10 SFac= 1.00D+00 NAtFMM=   60 NAOKFM=F Big=F
 Integral buffers will be    131072 words long.
 Regular integral format.
 Two-electron integral symmetry is turned on.
 Leave Link  301 at Mon May  4 00:22:36 2026, MaxMem=  1048576000 cpu:               0.1 elap:               0.1
 (Enter /projects/academic/jochena/software/easybuild/2023.01/software/Core/gaussian/16.C.02-AVX2/g16/l302.exe)
 NPDir=0 NMtPBC=     1 NCelOv=     1 NCel=       1 NClECP=     1 NCelD=      1
         NCelK=      1 NCelE2=     1 NClLst=     1 CellRange=     0.0.
 One-electron integrals computed using PRISM.
 One-electron integral symmetry used in STVInt
 NBasis=   160 RedAO= T EigKep=  1.92D-05  NBF=   120    40
 NBsUse=   160 1.00D-06 EigRej= -1.00D+00 NBFU=   120    40
 Precomputing XC quadrature grid using
 IXCGrd= 4 IRadAn=           5 IRanWt=          -1 IRanGd=           0 AccXCQ= 0.00D+00.
 Generated NRdTot=       0 NPtTot=           0 NUsed=           0 NTot=          32
 NSgBfM=   166   166   166   166   166 MxSgAt=    10 MxSgA2=    10.
 Leave Link  302 at Mon May  4 00:22:37 2026, MaxMem=  1048576000 cpu:               0.7 elap:               0.3
 (Enter /projects/academic/jochena/software/easybuild/2023.01/software/Core/gaussian/16.C.02-AVX2/g16/l303.exe)
 DipDrv:  MaxL=1.
 Leave Link  303 at Mon May  4 00:22:37 2026, MaxMem=  1048576000 cpu:               0.1 elap:               0.1
 (Enter /projects/academic/jochena/software/easybuild/2023.01/software/Core/gaussian/16.C.02-AVX2/g16/l308.exe)
 Leave Link  308 at Mon May  4 00:22:37 2026, MaxMem=  1048576000 cpu:               0.1 elap:               0.1
 (Enter /projects/academic/jochena/software/easybuild/2023.01/software/Core/gaussian/16.C.02-AVX2/g16/l401.exe)
 ExpMin= 3.60D-02 ExpMax= 6.29D+03 ExpMxC= 9.49D+02 IAcc=3 IRadAn=         5 AccDes= 0.00D+00
 Harris functional with IExCor=  402 and IRadAn=       5 diagonalized for initial guess.
 HarFok:  IExCor=  402 AccDes= 0.00D+00 IRadAn=         5 IDoV= 1 UseB2=F ITyADJ=14
 ICtDFT=  3500011 ScaDFX=  1.000000  1.000000  1.000000  1.000000
 FoFCou: FMM=F IPFlag=           0 FMFlag=      100000 FMFlg1=           0
         NFxFlg=           0 DoJE=T BraDBF=F KetDBF=T FulRan=T
         wScrn=  0.000000 ICntrl=       500 IOpCl=  0 I1Cent=   200000004 NGrid=           0
         NMat0=    1 NMatS0=      1 NMatT0=    0 NMatD0=    1 NMtDS0=    0 NMtDT0=    0
 Petite list used in FoFCou.
 Harris En= -264.358472527649    
 JPrj=0 DoOrth=F DoCkMO=F.
 Initial guess orbital symmetries:
       Occupied  (A') (A') (A') (A') (A') (A') (A') (A') (A') (A')
                 (A') (A') (A') (A') (A') (A") (A') (A") (A') (A")
                 (A')
       Virtual   (A") (A") (A') (A') (A") (A') (A') (A') (A") (A')
                 (A") (A') (A") (A') (A') (A') (A') (A') (A') (A")
                 (A') (A') (A') (A') (A") (A') (A') (A') (A') (A')
                 (A") (A') (A') (A') (A') (A') (A') (A') (A') (A')
                 (A') (A') (A') (A") (A') (A") (A') (A") (A") (A')
                 (A') (A') (A') (A') (A') (A') (A') (A") (A') (A')
                 (A") (A') (A') (A") (A') (A') (A') (A") (A") (A')
                 (A') (A") (A") (A") (A') (A') (A') (A') (A') (A')
                 (A') (A") (A") (A') (A") (A") (A') (A') (A') (A')
                 (A") (A') (A') (A") (A') (A') (A") (A') (A") (A')
                 (A') (A") (A') (A') (A") (A') (A") (A') (A') (A')
                 (A") (A') (A") (A') (A") (A') (A') (A') (A') (A')
                 (A') (A') (A') (A') (A') (A") (A") (A') (A') (A')
                 (A') (A') (A') (A') (A') (A') (A') (A') (A')
 The electronic state of the initial guess is 1-A'.
 Leave Link  401 at Mon May  4 00:22:38 2026, MaxMem=  1048576000 cpu:               1.5 elap:               0.5
 (Enter /projects/academic/jochena/software/easybuild/2023.01/software/Core/gaussian/16.C.02-AVX2/g16/l502.exe)
 Keep R1 ints in memory in symmetry-blocked form, NReq=127152809.
 FoFCou: FMM=F IPFlag=           0 FMFlag=           0 FMFlg1=           0
         NFxFlg=           0 DoJE=F BraDBF=F KetDBF=F FulRan=T
         wScrn=  0.000000 ICntrl=       600 IOpCl=  0 I1Cent=           0 NGrid=           0
         NMat0=    1 NMatS0=  12880 NMatT0=    0 NMatD0=    1 NMtDS0=    0 NMtDT0=    0
 Petite list used in FoFCou.
 Closed shell SCF:
 Using DIIS extrapolation, IDIIS=  1040.
 NGot=  1048576000 LenX=  1004320128 LenY=  1004292131
 Requested convergence on RMS density matrix=1.00D-08 within 128 cycles.
 Requested convergence on MAX density matrix=1.00D-06.
 Requested convergence on             energy=1.00D-06.
 No special actions if energy rises.

 Cycle   1  Pass 1  IDiag  1:
 E= -264.305575144301    
 DIIS: error= 3.89D-02 at cycle   1 NSaved=   1.
 NSaved= 1 IEnMin= 1 EnMin= -264.305575144301     IErMin= 1 ErrMin= 3.89D-02
 ErrMax= 3.89D-02  0.00D+00 EMaxC= 1.00D-01 BMatC= 9.67D-02 BMatP= 9.67D-02
 IDIUse=3 WtCom= 6.11D-01 WtEn= 3.89D-01
 Coeff-Com:  0.100D+01
 Coeff-En:   0.100D+01
 Coeff:      0.100D+01
 Gap=     0.184 Goal=   None    Shift=    0.000
 GapD=    0.184 DampG=1.000 DampE=0.500 DampFc=0.5000 IDamp=-1.
 Damping current iteration by 5.00D-01
 RMSDP=5.97D-03 MaxDP=1.23D-01              OVMax= 1.23D-01

 Cycle   2  Pass 1  IDiag  1:
 E= -264.344202349633     Delta-E=       -0.038627205332 Rises=F Damp=T
 DIIS: error= 7.77D-03 at cycle   2 NSaved=   2.
 NSaved= 2 IEnMin= 2 EnMin= -264.344202349633     IErMin= 2 ErrMin= 7.77D-03
 ErrMax= 7.77D-03  0.00D+00 EMaxC= 1.00D-01 BMatC= 8.24D-03 BMatP= 9.67D-02
 IDIUse=3 WtCom= 9.22D-01 WtEn= 7.77D-02
 Coeff-Com: -0.807D-01 0.108D+01
 Coeff-En:   0.000D+00 0.100D+01
 Coeff:     -0.744D-01 0.107D+01
 Gap=     0.199 Goal=   None    Shift=    0.000
 RMSDP=1.67D-03 MaxDP=2.79D-02 DE=-3.86D-02 OVMax= 8.11D-02

 Cycle   3  Pass 1  IDiag  1:
 E= -264.381251716719     Delta-E=       -0.037049367086 Rises=F Damp=F
 DIIS: error= 1.06D-02 at cycle   3 NSaved=   3.
 NSaved= 3 IEnMin= 3 EnMin= -264.381251716719     IErMin= 2 ErrMin= 7.77D-03
 ErrMax= 1.06D-02  0.00D+00 EMaxC= 1.00D-01 BMatC= 6.69D-03 BMatP= 8.24D-03
 IDIUse=3 WtCom= 8.94D-01 WtEn= 1.06D-01
 Coeff-Com: -0.130D+00 0.554D+00 0.576D+00
 Coeff-En:   0.000D+00 0.000D+00 0.100D+01
 Coeff:     -0.116D+00 0.495D+00 0.621D+00
 Gap=     0.193 Goal=   None    Shift=    0.000
 RMSDP=5.83D-04 MaxDP=1.11D-02 DE=-3.70D-02 OVMax= 3.32D-02

 Cycle   4  Pass 1  IDiag  1:
 E= -264.385666089355     Delta-E=       -0.004414372637 Rises=F Damp=F
 DIIS: error= 4.33D-03 at cycle   4 NSaved=   4.
 NSaved= 4 IEnMin= 4 EnMin= -264.385666089355     IErMin= 4 ErrMin= 4.33D-03
 ErrMax= 4.33D-03  0.00D+00 EMaxC= 1.00D-01 BMatC= 1.53D-03 BMatP= 6.69D-03
 IDIUse=3 WtCom= 9.57D-01 WtEn= 4.33D-02
 Coeff-Com: -0.612D-01 0.193D+00 0.374D+00 0.494D+00
 Coeff-En:   0.000D+00 0.000D+00 0.177D+00 0.823D+00
 Coeff:     -0.586D-01 0.185D+00 0.366D+00 0.508D+00
 Gap=     0.194 Goal=   None    Shift=    0.000
 RMSDP=3.18D-04 MaxDP=6.21D-03 DE=-4.41D-03 OVMax= 1.23D-02

 Cycle   5  Pass 1  IDiag  1:
 E= -264.386909106457     Delta-E=       -0.001243017102 Rises=F Damp=F
 DIIS: error= 8.42D-04 at cycle   5 NSaved=   5.
 NSaved= 5 IEnMin= 5 EnMin= -264.386909106457     IErMin= 5 ErrMin= 8.42D-04
 ErrMax= 8.42D-04  0.00D+00 EMaxC= 1.00D-01 BMatC= 4.30D-05 BMatP= 1.53D-03
 IDIUse=3 WtCom= 9.92D-01 WtEn= 8.42D-03
 Coeff-Com: -0.142D-01 0.283D-01 0.960D-01 0.217D+00 0.673D+00
 Coeff-En:   0.000D+00 0.000D+00 0.000D+00 0.000D+00 0.100D+01
 Coeff:     -0.141D-01 0.281D-01 0.952D-01 0.215D+00 0.676D+00
 Gap=     0.194 Goal=   None    Shift=    0.000
 RMSDP=1.13D-04 MaxDP=2.69D-03 DE=-1.24D-03 OVMax= 1.48D-03

 Cycle   6  Pass 1  IDiag  1:
 E= -264.386943051876     Delta-E=       -0.000033945418 Rises=F Damp=F
 DIIS: error= 1.92D-05 at cycle   6 NSaved=   6.
 NSaved= 6 IEnMin= 6 EnMin= -264.386943051876     IErMin= 6 ErrMin= 1.92D-05
 ErrMax= 1.92D-05  0.00D+00 EMaxC= 1.00D-01 BMatC= 3.01D-08 BMatP= 4.30D-05
 IDIUse=1 WtCom= 1.00D+00 WtEn= 0.00D+00
 Coeff-Com: -0.250D-03-0.185D-03 0.345D-02 0.895D-02 0.418D-01 0.946D+00
 Coeff:     -0.250D-03-0.185D-03 0.345D-02 0.895D-02 0.418D-01 0.946D+00
 Gap=     0.194 Goal=   None    Shift=    0.000
 RMSDP=3.48D-06 MaxDP=4.23D-05 DE=-3.39D-05 OVMax= 8.02D-05

 Cycle   7  Pass 1  IDiag  1:
 E= -264.386943080636     Delta-E=       -0.000000028760 Rises=F Damp=F
 DIIS: error= 1.08D-05 at cycle   7 NSaved=   7.
 NSaved= 7 IEnMin= 7 EnMin= -264.386943080636     IErMin= 7 ErrMin= 1.08D-05
 ErrMax= 1.08D-05  0.00D+00 EMaxC= 1.00D-01 BMatC= 4.80D-09 BMatP= 3.01D-08
 IDIUse=1 WtCom= 1.00D+00 WtEn= 0.00D+00
 Coeff-Com:  0.382D-04-0.296D-03 0.180D-03 0.805D-03 0.664D-02 0.310D+00
 Coeff-Com:  0.683D+00
 Coeff:      0.382D-04-0.296D-03 0.180D-03 0.805D-03 0.664D-02 0.310D+00
 Coeff:      0.683D+00
 Gap=     0.194 Goal=   None    Shift=    0.000
 RMSDP=9.15D-07 MaxDP=1.31D-05 DE=-2.88D-08 OVMax= 6.38D-05

 Cycle   8  Pass 1  IDiag  1:
 E= -264.386943079016     Delta-E=        0.000000001619 Rises=F Damp=F
 DIIS: error= 1.32D-05 at cycle   8 NSaved=   8.
 NSaved= 8 IEnMin= 7 EnMin= -264.386943080636     IErMin= 7 ErrMin= 1.08D-05
 ErrMax= 1.32D-05  0.00D+00 EMaxC= 1.00D-01 BMatC= 6.58D-09 BMatP= 4.80D-09
 IDIUse=1 WtCom= 1.00D+00 WtEn= 0.00D+00
 Coeff-Com:  0.747D-04-0.165D-03-0.590D-03-0.130D-02-0.401D-02 0.284D-01
 Coeff-Com:  0.540D+00 0.438D+00
 Coeff:      0.747D-04-0.165D-03-0.590D-03-0.130D-02-0.401D-02 0.284D-01
 Coeff:      0.540D+00 0.438D+00
 Gap=     0.194 Goal=   None    Shift=    0.000
 RMSDP=5.01D-07 MaxDP=7.22D-06 DE= 1.62D-09 OVMax= 3.60D-05

 Cycle   9  Pass 1  IDiag  1:
 E= -264.386943085515     Delta-E=       -0.000000006499 Rises=F Damp=F
 DIIS: error= 2.50D-07 at cycle   9 NSaved=   9.
 NSaved= 9 IEnMin= 9 EnMin= -264.386943085515     IErMin= 9 ErrMin= 2.50D-07
 ErrMax= 2.50D-07  0.00D+00 EMaxC= 1.00D-01 BMatC= 1.14D-11 BMatP= 4.80D-09
 IDIUse=1 WtCom= 1.00D+00 WtEn= 0.00D+00
 Coeff-Com:  0.103D-04-0.203D-04-0.956D-04-0.259D-03-0.768D-03-0.107D-03
 Coeff-Com:  0.854D-01 0.830D-01 0.833D+00
 Coeff:      0.103D-04-0.203D-04-0.956D-04-0.259D-03-0.768D-03-0.107D-03
 Coeff:      0.854D-01 0.830D-01 0.833D+00
 Gap=     0.194 Goal=   None    Shift=    0.000
 RMSDP=3.28D-08 MaxDP=6.09D-07 DE=-6.50D-09 OVMax= 1.84D-06

 Cycle  10  Pass 1  IDiag  1:
 E= -264.386943085519     Delta-E=       -0.000000000004 Rises=F Damp=F
 DIIS: error= 3.74D-07 at cycle  10 NSaved=  10.
 NSaved=10 IEnMin=10 EnMin= -264.386943085519     IErMin= 9 ErrMin= 2.50D-07
 ErrMax= 3.74D-07  0.00D+00 EMaxC= 1.00D-01 BMatC= 5.95D-12 BMatP= 1.14D-11
 IDIUse=1 WtCom= 1.00D+00 WtEn= 0.00D+00
 Coeff-Com:  0.224D-05-0.356D-05-0.256D-04-0.895D-04-0.247D-03-0.157D-02
 Coeff-Com:  0.211D-01 0.261D-01 0.489D+00 0.465D+00
 Coeff:      0.224D-05-0.356D-05-0.256D-04-0.895D-04-0.247D-03-0.157D-02
 Coeff:      0.211D-01 0.261D-01 0.489D+00 0.465D+00
 Gap=     0.194 Goal=   None    Shift=    0.000
 RMSDP=1.15D-08 MaxDP=2.89D-07 DE=-4.15D-12 OVMax= 1.31D-06

 Cycle  11  Pass 1  IDiag  1:
 E= -264.386943085525     Delta-E=       -0.000000000005 Rises=F Damp=F
 DIIS: error= 3.53D-08 at cycle  11 NSaved=  11.
 NSaved=11 IEnMin=11 EnMin= -264.386943085525     IErMin=11 ErrMin= 3.53D-08
 ErrMax= 3.53D-08  0.00D+00 EMaxC= 1.00D-01 BMatC= 7.91D-14 BMatP= 5.95D-12
 IDIUse=1 WtCom= 1.00D+00 WtEn= 0.00D+00
 Coeff-Com: -0.404D-06 0.103D-05 0.323D-05 0.161D-05 0.123D-04-0.553D-03
 Coeff-Com: -0.526D-02-0.382D-02 0.214D-01 0.104D+00 0.884D+00
 Coeff:     -0.404D-06 0.103D-05 0.323D-05 0.161D-05 0.123D-04-0.553D-03
 Coeff:     -0.526D-02-0.382D-02 0.214D-01 0.104D+00 0.884D+00
 Gap=     0.194 Goal=   None    Shift=    0.000
 RMSDP=3.27D-09 MaxDP=6.31D-08 DE=-5.23D-12 OVMax= 1.16D-07

 SCF Done:  E(RB3LYP) =  -264.386943086     A.U. after   11 cycles
            NFock= 11  Conv=0.33D-08     -V/T= 2.0044
 KE= 2.632172570509D+02 PE=-1.031812799996D+03 EE= 2.957847760850D+02
 Leave Link  502 at Mon May  4 00:22:45 2026, MaxMem=  1048576000 cpu:              24.4 elap:               7.1
 (Enter /projects/academic/jochena/software/easybuild/2023.01/software/Core/gaussian/16.C.02-AVX2/g16/l801.exe)
 DoSCS=F DFT=T ScalE2(SS,OS)=  1.000000  1.000000
 ExpMin= 3.60D-02 ExpMax= 6.29D+03 ExpMxC= 9.49D+02 IAcc=3 IRadAn=         5 AccDes= 0.00D+00
 HarFok:  IExCor=  205 AccDes= 0.00D+00 IRadAn=         5 IDoV=-2 UseB2=F ITyADJ=14
 ICtDFT= 12500011 ScaDFX=  1.000000  1.000000  1.000000  1.000000
 Largest valence mixing into a core orbital is  5.05D-05
 Largest core mixing into a valence orbital is  1.30D-05
 Range of M.O.s used for correlation:     7   160
 NBasis=   160 NAE=    21 NBE=    21 NFC=     6 NFV=     0
 NROrb=    154 NOA=    15 NOB=    15 NVA=   139 NVB=   139

 **** Warning!!: The largest alpha MO coefficient is  0.63838468D+02

 Leave Link  801 at Mon May  4 00:22:46 2026, MaxMem=  1048576000 cpu:               0.5 elap:               0.2
 (Enter /projects/academic/jochena/software/easybuild/2023.01/software/Core/gaussian/16.C.02-AVX2/g16/l914.exe)
 RHF ground state
 Keep R1, R2, and R3 ints in memory in symmetry-blocked form, NReq=598194530.
 FoFCou: FMM=F IPFlag=           0 FMFlag=           0 FMFlg1=           0
         NFxFlg=           0 DoJE=F BraDBF=F KetDBF=F FulRan=T
         wScrn=  0.000000 ICntrl=       600 IOpCl=  0 I1Cent=           0 NGrid=           0
         NMat0=    1 NMatS0=  12880 NMatT0=    0 NMatD0=    1 NMtDS0=    0 NMtDT0=    0
 Petite list used in FoFCou.
 MDV=  1048576000 DFT=T DoStab=F Mixed=T DoRPA=T DoScal=F NonHer=T
 Making orbital integer symmetry assigments:
 Orbital symmetries:
       Occupied  (A') (A') (A') (A') (A') (A') (A') (A') (A') (A')
                 (A') (A') (A') (A') (A') (A") (A') (A") (A') (A")
                 (A')
       Virtual   (A") (A") (A') (A') (A') (A') (A') (A") (A") (A')
                 (A") (A') (A') (A') (A') (A") (A') (A') (A') (A")
                 (A') (A') (A") (A') (A') (A') (A') (A') (A") (A')
                 (A') (A') (A') (A') (A') (A') (A') (A') (A') (A')
                 (A') (A') (A") (A') (A") (A') (A') (A") (A") (A')
                 (A') (A') (A') (A') (A') (A') (A') (A") (A') (A')
                 (A") (A') (A') (A') (A") (A') (A') (A") (A') (A")
                 (A') (A") (A") (A") (A') (A') (A') (A') (A') (A')
                 (A') (A") (A") (A') (A") (A") (A') (A') (A') (A')
                 (A") (A') (A') (A") (A') (A') (A") (A') (A") (A')
                 (A") (A') (A') (A') (A') (A") (A') (A') (A") (A')
                 (A") (A') (A") (A') (A") (A') (A') (A') (A') (A')
                 (A') (A') (A') (A') (A') (A") (A") (A') (A') (A')
                 (A') (A') (A') (A') (A') (A') (A') (A') (A')
   800 initial guesses have been made.
 Convergence on wavefunction:    0.001000000000000
 Davidson Disk Diagonalization:  ConvIn= 1.00D-03 SkipCon=T Conv= 1.00D-03.
 Max sub-space: 12000 roots to seek:   800 dimension of matrix:         4170
 Iteration     1 Dimension   800 NMult     0 NNew    800
 CISAX will form   800 AO SS matrices at one time.
 NMat=   800 NSing=   800 JSym2X=-1.
 New state      4 was old state      5
 New state      5 was old state      6
 New state      6 was old state      9
 New state      7 was old state      4
 New state      8 was old state      7
 New state      9 was old state     10
 New state     10 was old state     11
 New state     11 was old state     12
 New state     12 was old state     13
 New state     13 was old state     15
 New state     14 was old state     17
 New state     15 was old state     22
 New state     16 was old state      8
 New state     17 was old state     16
 New state     18 was old state     14
 New state     19 was old state     18
 New state     20 was old state     19
 New state     22 was old state     23
 New state     23 was old state     24
 New state     24 was old state     20
 New state     26 was old state     33
 New state     28 was old state     26
 New state     29 was old state     28
 New state     30 was old state     29
 New state     31 was old state     30
 New state     33 was old state     35
 New state     34 was old state     45
 New state     35 was old state     34
 New state     36 was old state     31
 New state     38 was old state     46
 New state     39 was old state     36
 New state     40 was old state     39
 New state     42 was old state     38
 New state     43 was old state     40
 New state     45 was old state     42
 New state     46 was old state     43
 New state     47 was old state     62
 New state     48 was old state     49
 New state     49 was old state     47
 New state     50 was old state     48
 New state     51 was old state     50
 New state     52 was old state     51
 New state     53 was old state     55
 New state     54 was old state     56
 New state     55 was old state     54
 New state     56 was old state     52
 New state     58 was old state     53
 New state     60 was old state     58
 New state     61 was old state     60
 New state     62 was old state     61
 New state     64 was old state     65
 New state     65 was old state     77
 New state     66 was old state     70
 New state     67 was old state     66
 New state     68 was old state     69
 New state     69 was old state     67
 New state     70 was old state     75
 New state     72 was old state     68
 New state     73 was old state     72
 New state     74 was old state     76
 New state     75 was old state     73
 New state     76 was old state     74
 New state     77 was old state     64
 New state     79 was old state    101
 New state     80 was old state     87
 New state     81 was old state     79
 New state     82 was old state     80
 New state     83 was old state     82
 New state     85 was old state     81
 New state     86 was old state     88
 New state     87 was old state     83
 New state     88 was old state     85
 New state     89 was old state     93
 New state     90 was old state     86
 New state     91 was old state    105
 New state     92 was old state     90
 New state     93 was old state    102
 New state     94 was old state     92
 New state     95 was old state     96
 New state     96 was old state     89
 New state     97 was old state     91
 New state     98 was old state     94
 New state     99 was old state    120
 New state    100 was old state     98
 New state    101 was old state     97
 New state    102 was old state    100
 New state    103 was old state     95
 New state    104 was old state    103
 New state    105 was old state     99
 New state    106 was old state    110
 New state    107 was old state    128
 New state    108 was old state    112
 New state    109 was old state    106
 New state    110 was old state    111
 New state    111 was old state    121
 New state    112 was old state    104
 New state    113 was old state    109
 New state    114 was old state    107
 New state    115 was old state    108
 New state    116 was old state    119
 New state    117 was old state    113
 New state    119 was old state    115
 New state    120 was old state    114
 New state    121 was old state    117
 New state    122 was old state    116
 New state    123 was old state    122
 New state    124 was old state    125
 New state    125 was old state    123
 New state    126 was old state    124
 New state    127 was old state    126
 New state    128 was old state    127
 New state    130 was old state    132
 New state    131 was old state    130
 New state    132 was old state    135
 New state    133 was old state    131
 New state    134 was old state    148
 New state    135 was old state    134
 New state    136 was old state    133
 New state    138 was old state    150
 New state    140 was old state    138
 New state    141 was old state    143
 New state    143 was old state    145
 New state    144 was old state    140
 New state    145 was old state    144
 New state    146 was old state    136
 New state    147 was old state    158
 New state    148 was old state    146
 New state    149 was old state    151
 New state    150 was old state    147
 New state    151 was old state    149
 New state    152 was old state    141
 New state    153 was old state    154
 New state    154 was old state    174
 New state    155 was old state    157
 New state    156 was old state    162
 New state    157 was old state    152
 New state    158 was old state    172
 New state    159 was old state    153
 New state    160 was old state    165
 New state    161 was old state    155
 New state    162 was old state    164
 New state    163 was old state    173
 New state    164 was old state    160
 New state    165 was old state    171
 New state    166 was old state    156
 New state    167 was old state    163
 New state    168 was old state    159
 New state    170 was old state    167
 New state    171 was old state    166
 New state    172 was old state    161
 New state    173 was old state    168
 New state    174 was old state    175
 New state    175 was old state    176
 New state    176 was old state    170
 New state    178 was old state    182
 New state    179 was old state    178
 New state    180 was old state    181
 New state    181 was old state    180
 New state    182 was old state    196
 New state    183 was old state    179
 New state    184 was old state    197
 New state    185 was old state    186
 New state    186 was old state    190
 New state    187 was old state    183
 New state    188 was old state    194
 New state    189 was old state    193
 New state    190 was old state    192
 New state    191 was old state    187
 New state    192 was old state    191
 New state    193 was old state    184
 New state    194 was old state    189
 New state    195 was old state    200
 New state    196 was old state    202
 New state    197 was old state    188
 New state    198 was old state    204
 New state    199 was old state    229
 New state    200 was old state    199
 Excitation Energies [eV] at current iteration:
 Root      1 :     3.961641356540574
 Root      2 :     4.554492122200100
 Root      3 :     5.422617942763769
 Root      4 :     5.635167502038405
 Root      5 :     6.170650873417916
 Root      6 :     6.321100666732848
 Root      7 :     6.552968075004116
 Root      8 :     6.568025763031792
 Root      9 :     6.865070079880149
 Root     10 :     6.975130270819437
 Root     11 :     7.258803494858392
 Root     12 :     7.357740681033873
 Root     13 :     7.503756321272429
 Root     14 :     7.693418022418135
 Root     15 :     7.694661642346531
 Root     16 :     7.717871558196689
 Root     17 :     7.764522880836508
 Root     18 :     7.764839801009965
 Root     19 :     7.979368328602702
 Root     20 :     8.122353338892010
 Root     21 :     8.160036166546355
 Root     22 :     8.191809270954144
 Root     23 :     8.229648290272795
 Root     24 :     8.275664233522059
 Root     25 :     8.410779677795771
 Root     26 :     8.465057245176297
 Root     27 :     8.532700884031909
 Root     28 :     8.580301638594060
 Root     29 :     8.729638775336355
 Root     30 :     8.818545558697844
 Root     31 :     8.900526553529650
 Root     32 :     8.924664566312311
 Root     33 :     8.962222000872634
 Root     34 :     9.014291645337549
 Root     35 :     9.041906961070962
 Root     36 :     9.136386132732422
 Root     37 :     9.201232341678432
 Root     38 :     9.203599750173115
 Root     39 :     9.260047582567410
 Root     40 :     9.273488343351641
 Root     41 :     9.420999857597847
 Root     42 :     9.424261032779608
 Root     43 :     9.507571510062542
 Root     44 :     9.617376813227901
 Root     45 :     9.618851222114376
 Root     46 :     9.642332992975742
 Root     47 :     9.644742676219430
 Root     48 :     9.702549500767093
 Root     49 :     9.731142657403502
 Root     50 :     9.792309899661999
 Root     51 :     9.793147773027806
 Root     52 :     9.829002566202483
 Root     53 :     9.867159977884528
 Root     54 :     9.869292121461580
 Root     55 :     9.943986896580565
 Root     56 :     9.990526046238896
 Root     57 :     9.994117056303047
 Root     58 :    10.078955670300024
 Root     59 :    10.158846507879355
 Root     60 :    10.161030449522109
 Root     61 :    10.202201996311789
 Root     62 :    10.285886888032710
 Root     63 :    10.381051504785706
 Root     64 :    10.429210718599911
 Root     65 :    10.448769289331956
 Root     66 :    10.489542390504935
 Root     67 :    10.534910031733522
 Root     68 :    10.546004103808457
 Root     69 :    10.639290753324875
 Root     70 :    10.713140676893033
 Root     71 :    10.730730475223789
 Root     72 :    10.784390594325576
 Root     73 :    10.784687810227689
 Root     74 :    10.823164931366451
 Root     75 :    10.867611926883184
 Root     76 :    10.875904546774374
 Root     77 :    10.933239956980326
 Root     78 :    10.982046041726875
 Root     79 :    10.983363879499667
 Root     80 :    11.055765549651714
 Root     81 :    11.121282197699005
 Root     82 :    11.186441730656325
 Root     83 :    11.237707613511779
 Root     84 :    11.256096053739833
 Root     85 :    11.260592451113373
 Root     86 :    11.261183584585376
 Root     87 :    11.270767464442006
 Root     88 :    11.298443191576711
 Root     89 :    11.304401513480318
 Root     90 :    11.379801928410025
 Root     91 :    11.440161935425930
 Root     92 :    11.441507053098132
 Root     93 :    11.450491504921494
 Root     94 :    11.508201292328511
 Root     95 :    11.545971747389306
 Root     96 :    11.561396000995234
 Root     97 :    11.697353890948330
 Root     98 :    11.725502805593830
 Root     99 :    11.735894193784626
 Root    100 :    11.751057269479585
 Root    101 :    11.756065277089757
 Root    102 :    11.757464265287277
 Root    103 :    11.779766214264157
 Root    104 :    11.818060700099807
 Root    105 :    11.856267133852196
 Root    106 :    11.958899261671073
 Root    107 :    12.051821918460755
 Root    108 :    12.072851261456460
 Root    109 :    12.081441610016594
 Root    110 :    12.092610508718991
 Root    111 :    12.147734709777289
 Root    112 :    12.158246086366633
 Root    113 :    12.173703898583279
 Root    114 :    12.190144490672360
 Root    115 :    12.227678018189920
 Root    116 :    12.294228334949475
 Root    117 :    12.304437039878872
 Root    118 :    12.318756895084006
 Root    119 :    12.328714227467762
 Root    120 :    12.333798346070852
 Root    121 :    12.383451079353289
 Root    122 :    12.475444457343345
 Root    123 :    12.499801377126756
 Root    124 :    12.536932045024887
 Root    125 :    12.537779086740546
 Root    126 :    12.647305390032448
 Root    127 :    12.650733729245745
 Root    128 :    12.726280239498481
 Root    129 :    12.757991058772733
 Root    130 :    12.770210064521192
 Root    131 :    12.820778297926680
 Root    132 :    12.841359483262925
 Root    133 :    12.870233786143629
 Root    134 :    13.020734330937865
 Root    135 :    13.044692691720524
 Root    136 :    13.055412343417515
 Root    137 :    13.090804669578748
 Root    138 :    13.118692240869334
 Root    139 :    13.136576404816639
 Root    140 :    13.322191178304395
 Root    141 :    13.336562988935631
 Root    142 :    13.338616758744049
 Root    143 :    13.341505131178895
 Root    144 :    13.357429873046557
 Root    145 :    13.370056942832973
 Root    146 :    13.382514493582043
 Root    147 :    13.430879166795274
 Root    148 :    13.440185861129367
 Root    149 :    13.482206992099176
 Root    150 :    13.501327980444373
 Root    151 :    13.507639117797241
 Root    152 :    13.538649152746073
 Root    153 :    13.579167696153416
 Root    154 :    13.613527666010068
 Root    155 :    13.616747960403277
 Root    156 :    13.650990072545467
 Root    157 :    13.697132133589770
 Root    158 :    13.717377801217845
 Root    159 :    13.720230482534754
 Root    160 :    13.754145753429055
 Root    161 :    13.778631096862162
 Root    162 :    13.795832755933448
 Root    163 :    13.839388241155582
 Root    164 :    13.844838020975383
 Root    165 :    13.885571600570172
 Root    166 :    13.891895272605709
 Root    167 :    13.893257754256382
 Root    168 :    13.899006560520808
 Root    169 :    13.946204724425220
 Root    170 :    13.961181900513974
 Root    171 :    13.973052920605843
 Root    172 :    13.974729974682653
 Root    173 :    14.008274170762535
 Root    174 :    14.032436337858570
 Root    175 :    14.114823972635007
 Root    176 :    14.137619871554541
 Root    177 :    14.147780228809127
 Root    178 :    14.230128972125042
 Root    179 :    14.278339899386696
 Root    180 :    14.318312422372875
 Root    181 :    14.325530325899964
 Root    182 :    14.337663731065529
 Root    183 :    14.377968874159608
 Root    184 :    14.433454384927039
 Root    185 :    14.440630551209551
 Root    186 :    14.487882214791066
 Root    187 :    14.501695629075622
 Root    188 :    14.514452537418393
 Root    189 :    14.530252485866351
 Root    190 :    14.564677024738579
 Root    191 :    14.586765706974331
 Root    192 :    14.613728921583046
 Root    193 :    14.646029010065886
 Root    194 :    14.662210988667931
 Root    195 :    14.664230966491823
 Root    196 :    14.683092088265761
 Root    197 :    14.685499902763771
 Root    198 :    14.692836478244558
 Root    199 :    14.698388659700058
 Root    200 :    14.740318422934520
 Root    201 :    14.784794366023879
 Root    202 :    14.790039893327023
 Root    203 :    14.792234176961456
 Root    204 :    14.827568473265105
 Root    205 :    14.847746153222399
 Root    206 :    14.878872722765816
 Root    207 :    14.900788141055228
 Root    208 :    14.903719464647999
 Root    209 :    14.930950265896815
 Root    210 :    14.936531642586431
 Root    211 :    14.946368881541382
 Root    212 :    14.971068708215336
 Root    213 :    14.977263513078496
 Root    214 :    14.978866253305204
 Root    215 :    15.018824545666115
 Root    216 :    15.037662518575756
 Root    217 :    15.133783748552091
 Root    218 :    15.148416970719067
 Root    219 :    15.194782264425369
 Root    220 :    15.199531968993256
 Root    221 :    15.232462847368101
 Root    222 :    15.259463851509441
 Root    223 :    15.327433344283353
 Root    224 :    15.340610595559875
 Root    225 :    15.345624565026602
 Root    226 :    15.367947789274188
 Root    227 :    15.387189097042235
 Root    228 :    15.389492759870201
 Root    229 :    15.423200713334580
 Root    230 :    15.444390513177940
 Root    231 :    15.448617806492521
 Root    232 :    15.482172056080310
 Root    233 :    15.569249923767561
 Root    234 :    15.576166384755144
 Root    235 :    15.604123466602728
 Root    236 :    15.633266792590126
 Root    237 :    15.682753396689163
 Root    238 :    15.707590949253319
 Root    239 :    15.748910685909037
 Root    240 :    15.749927889673407
 Root    241 :    15.819473638380757
 Root    242 :    15.864050376990823
 Root    243 :    15.916289651645927
 Root    244 :    15.924886154874011
 Root    245 :    15.942575594907835
 Root    246 :    15.955102156080818
 Root    247 :    15.965036614977878
 Root    248 :    15.978602210653182
 Root    249 :    15.993669172221127
 Root    250 :    16.018486961989179
 Root    251 :    16.035616348382483
 Root    252 :    16.138232635334468
 Root    253 :    16.163198907545663
 Root    254 :    16.197500028445894
 Root    255 :    16.202026690653433
 Root    256 :    16.252218933533552
 Root    257 :    16.352191324107302
 Root    258 :    16.356001117427141
 Root    259 :    16.369543397709823
 Root    260 :    16.369773139222001
 Root    261 :    16.401081695224971
 Root    262 :    16.466802932974119
 Root    263 :    16.467736998931883
 Root    264 :    16.509669706192998
 Root    265 :    16.513104597868974
 Root    266 :    16.519253688431867
 Root    267 :    16.521615008237756
 Root    268 :    16.536769211114098
 Root    269 :    16.581172160936894
 Root    270 :    16.598794172422178
 Root    271 :    16.614373403797089
 Root    272 :    16.616133496141426
 Root    273 :    16.657625684293045
 Root    274 :    16.679981974316092
 Root    275 :    16.728101074304753
 Root    276 :    16.780529831565470
 Root    277 :    16.793681243207761
 Root    278 :    16.840786165131515
 Root    279 :    16.892217461945318
 Root    280 :    16.921081193464584
 Root    281 :    16.967600489445434
 Root    282 :    16.968191264342817
 Root    283 :    17.022763070515165
 Root    284 :    17.066742875092508
 Root    285 :    17.084923035865774
 Root    286 :    17.127699131482405
 Root    287 :    17.168574958422912
 Root    288 :    17.181480421898414
 Root    289 :    17.188929705017802
 Root    290 :    17.234896686451521
 Root    291 :    17.263650823298768
 Root    292 :    17.325507758394902
 Root    293 :    17.337224200843327
 Root    294 :    17.346380426121026
 Root    295 :    17.362340253840127
 Root    296 :    17.411462172574005
 Root    297 :    17.427608463750932
 Root    298 :    17.487151216811650
 Root    299 :    17.528161305481628
 Root    300 :    17.552021292705003
 Root    301 :    17.562352250964384
 Root    302 :    17.578574878095338
 Root    303 :    17.602129042867631
 Root    304 :    17.642926374351930
 Root    305 :    17.656792785821139
 Root    306 :    17.676022398787563
 Root    307 :    17.680846109631609
 Root    308 :    17.720529533135913
 Root    309 :    17.721041720489573
 Root    310 :    17.725882295230594
 Root    311 :    17.820602230606720
 Root    312 :    17.825290556865209
 Root    313 :    17.903074092160868
 Root    314 :    17.942260454266627
 Root    315 :    17.953942334777576
 Root    316 :    17.960601693980866
 Root    317 :    17.997793150545412
 Root    318 :    18.026427776809484
 Root    319 :    18.029836260332214
 Root    320 :    18.086272539321456
 Root    321 :    18.139620112750656
 Root    322 :    18.143347661455241
 Root    323 :    18.154808779595882
 Root    324 :    18.199362805325642
 Root    325 :    18.210336688097982
 Root    326 :    18.221075784707654
 Root    327 :    18.257733518336252
 Root    328 :    18.327564854372337
 Root    329 :    18.368036822931273
 Root    330 :    18.487402923725369
 Root    331 :    18.507529780507028
 Root    332 :    18.540685458063830
 Root    333 :    18.556591138727427
 Root    334 :    18.574803333779098
 Root    335 :    18.575800366351395
 Root    336 :    18.651096796632345
 Root    337 :    18.651611772684486
 Root    338 :    18.690103712825721
 Root    339 :    18.767242514491144
 Root    340 :    18.800071998125393
 Root    341 :    18.837451399609293
 Root    342 :    18.841150171897631
 Root    343 :    18.875452102963791
 Root    344 :    18.896056418689522
 Root    345 :    18.903276284018201
 Root    346 :    19.024081843001397
 Root    347 :    19.039059339346899
 Root    348 :    19.089179586863853
 Root    349 :    19.118755667165971
 Root    350 :    19.136182697099272
 Root    351 :    19.139251399234407
 Root    352 :    19.147706181406800
 Root    353 :    19.174921266345844
 Root    354 :    19.267943712060127
 Root    355 :    19.293788352822762
 Root    356 :    19.359399362337097
 Root    357 :    19.366094720676504
 Root    358 :    19.369790519159057
 Root    359 :    19.431589516647001
 Root    360 :    19.482706912654525
 Root    361 :    19.501921167724877
 Root    362 :    19.512592889394824
 Root    363 :    19.569060554197776
 Root    364 :    19.603357152576759
 Root    365 :    19.634228541779475
 Root    366 :    19.646381460292794
 Root    367 :    19.703256462677196
 Root    368 :    19.736430158728531
 Root    369 :    19.749983539816014
 Root    370 :    19.801584517473298
 Root    371 :    19.818545528157149
 Root    372 :    19.868300313404923
 Root    373 :    19.888449040134141
 Root    374 :    19.914842219673833
 Root    375 :    19.957677050455310
 Root    376 :    19.964821751224544
 Root    377 :    20.083307356184147
 Root    378 :    20.090253119154966
 Root    379 :    20.164846648425833
 Root    380 :    20.168982096766825
 Root    381 :    20.173925598673783
 Root    382 :    20.207211175688393
 Root    383 :    20.224980636361849
 Root    384 :    20.246354479653753
 Root    385 :    20.257908111490060
 Root    386 :    20.317118075433214
 Root    387 :    20.347456525018796
 Root    388 :    20.359359556405973
 Root    389 :    20.361127876585172
 Root    390 :    20.400271202832055
 Root    391 :    20.406687746531087
 Root    392 :    20.431603850739510
 Root    393 :    20.467003737640578
 Root    394 :    20.480624711222706
 Root    395 :    20.518802703265390
 Root    396 :    20.535119984234878
 Root    397 :    20.544890105372669
 Root    398 :    20.599917242190852
 Root    399 :    20.610322413074883
 Root    400 :    20.616075935750096
 Root    401 :    20.616889964264438
 Root    402 :    20.642812724206006
 Root    403 :    20.688598352258367
 Root    404 :    20.722823205678203
 Root    405 :    20.763279798033949
 Root    406 :    20.777180589350184
 Root    407 :    20.813999349218260
 Root    408 :    20.847429233437094
 Root    409 :    20.848553786819554
 Root    410 :    20.870760003801141
 Root    411 :    20.900345367394191
 Root    412 :    20.906492295017195
 Root    413 :    20.922773371583069
 Root    414 :    21.009789608406454
 Root    415 :    21.032220795434828
 Root    416 :    21.039557095576932
 Root    417 :    21.119899988394160
 Root    418 :    21.133844912043763
 Root    419 :    21.166377765500929
 Root    420 :    21.168002492714635
 Root    421 :    21.180815362987765
 Root    422 :    21.181155789681213
 Root    423 :    21.187634819359943
 Root    424 :    21.202781549071364
 Root    425 :    21.218735051610938
 Root    426 :    21.244244142376438
 Root    427 :    21.251679323302781
 Root    428 :    21.269895829071004
 Root    429 :    21.301070378743411
 Root    430 :    21.337289618099046
 Root    431 :    21.376711664299023
 Root    432 :    21.391410951003639
 Root    433 :    21.413844917596659
 Root    434 :    21.432811297548106
 Root    435 :    21.445469505367662
 Root    436 :    21.456731135583691
 Root    437 :    21.533418098043089
 Root    438 :    21.558565850710966
 Root    439 :    21.613311614500311
 Root    440 :    21.636228664632231
 Root    441 :    21.649651357216975
 Root    442 :    21.695453912418571
 Root    443 :    21.707523451077680
 Root    444 :    21.762351511322858
 Root    445 :    21.811139422332705
 Root    446 :    21.828868338651578
 Root    447 :    21.927735848001202
 Root    448 :    21.940512045530586
 Root    449 :    21.984588351331119
 Root    450 :    21.984712204124939
 Root    451 :    22.003299123891150
 Root    452 :    22.059785302020320
 Root    453 :    22.065357230785455
 Root    454 :    22.081433601604989
 Root    455 :    22.090466025104551
 Root    456 :    22.126963108857684
 Root    457 :    22.236172154493488
 Root    458 :    22.283527429973248
 Root    459 :    22.353468831989897
 Root    460 :    22.383391430552031
 Root    461 :    22.425940460402582
 Root    462 :    22.469862307483766
 Root    463 :    22.551306944340066
 Root    464 :    22.555073231563323
 Root    465 :    22.560882517495795
 Root    466 :    22.616737613200154
 Root    467 :    22.630926590663222
 Root    468 :    22.666375557154968
 Root    469 :    22.734742609956815
 Root    470 :    22.747677840432790
 Root    471 :    22.759839859633153
 Root    472 :    22.783923407166771
 Root    473 :    22.812793842437269
 Root    474 :    22.928748561361473
 Root    475 :    22.945686291433169
 Root    476 :    22.946226400504340
 Root    477 :    22.947028847105610
 Root    478 :    23.002576355112819
 Root    479 :    23.072697358504257
 Root    480 :    23.079392151497959
 Root    481 :    23.170067793265172
 Root    482 :    23.194992951846629
 Root    483 :    23.294261842511229
 Root    484 :    23.361088724035469
 Root    485 :    23.378232732734769
 Root    486 :    23.380732912456203
 Root    487 :    23.395812353205077
 Root    488 :    23.586627680414058
 Root    489 :    23.597964809403063
 Root    490 :    23.599169067146821
 Root    491 :    23.615065115145214
 Root    492 :    23.668187871538152
 Root    493 :    23.674503382375384
 Root    494 :    23.682951545220710
 Root    495 :    23.773604505103467
 Root    496 :    23.796514688324802
 Root    497 :    23.866084129786572
 Root    498 :    23.882790621359913
 Root    499 :    23.910175455196789
 Root    500 :    23.923447252241655
 Root    501 :    23.926368397720033
 Root    502 :    23.956027739729294
 Root    503 :    23.964190413703900
 Root    504 :    24.033695640434402
 Root    505 :    24.050806210987485
 Root    506 :    24.130594593394946
 Root    507 :    24.149215105048558
 Root    508 :    24.165292037345107
 Root    509 :    24.167345379929731
 Root    510 :    24.199590037007241
 Root    511 :    24.222639475148085
 Root    512 :    24.230285769053715
 Root    513 :    24.252518996908012
 Root    514 :    24.279658217674154
 Root    515 :    24.304955795574536
 Root    516 :    24.313361490473884
 Root    517 :    24.371596616485601
 Root    518 :    24.449685169641430
 Root    519 :    24.456243528277891
 Root    520 :    24.484859316275504
 Root    521 :    24.498196461742186
 Root    522 :    24.527884537734579
 Root    523 :    24.564765233162770
 Root    524 :    24.579117437253004
 Root    525 :    24.592105993326417
 Root    526 :    24.654565166876395
 Root    527 :    24.676550881911552
 Root    528 :    24.730667957029553
 Root    529 :    24.750421833203475
 Root    530 :    24.752819609551313
 Root    531 :    24.796925931778414
 Root    532 :    24.857870772468864
 Root    533 :    24.875906483836243
 Root    534 :    24.881973036474314
 Root    535 :    24.882394523621752
 Root    536 :    24.902210094382227
 Root    537 :    24.926564508755739
 Root    538 :    25.003424037455353
 Root    539 :    25.018862600546477
 Root    540 :    25.052552191156348
 Root    541 :    25.076644634329018
 Root    542 :    25.229468546370398
 Root    543 :    25.293880408041939
 Root    544 :    25.321851346067977
 Root    545 :    25.364723138644948
 Root    546 :    25.425773464169165
 Root    547 :    25.432227008591660
 Root    548 :    25.508240211586280
 Root    549 :    25.552125170685070
 Root    550 :    25.555505409546672
 Root    551 :    25.605182167091424
 Root    552 :    25.628498030490555
 Root    553 :    25.631360813118690
 Root    554 :    25.677267393815260
 Root    555 :    25.681882215107240
 Root    556 :    25.733819399852166
 Root    557 :    25.735823306610055
 Root    558 :    25.753803498643428
 Root    559 :    25.759386921612357
 Root    560 :    25.823205318738953
 Root    561 :    25.905555678777340
 Root    562 :    25.913749256880326
 Root    563 :    25.929290055853876
 Root    564 :    25.976511433554816
 Root    565 :    26.048901009387535
 Root    566 :    26.065178018689981
 Root    567 :    26.066612941685424
 Root    568 :    26.093277769327774
 Root    569 :    26.192787127071316
 Root    570 :    26.204556642332221
 Root    571 :    26.246733341533208
 Root    572 :    26.276489528077640
 Root    573 :    26.306648384899152
 Root    574 :    26.310540513355125
 Root    575 :    26.319422648474735
 Root    576 :    26.383674181066667
 Root    577 :    26.443794384704610
 Root    578 :    26.519562091946298
 Root    579 :    26.538278005810547
 Root    580 :    26.543363230595961
 Root    581 :    26.544423787304428
 Root    582 :    26.593352575909165
 Root    583 :    26.596506022540414
 Root    584 :    26.682864239439130
 Root    585 :    26.741534576364625
 Root    586 :    26.852069932120894
 Root    587 :    26.869092929764459
 Root    588 :    26.875826966396691
 Root    589 :    26.903502760932135
 Root    590 :    26.929414856317944
 Root    591 :    26.929474256112758
 Root    592 :    26.987613962073887
 Root    593 :    26.999722806819808
 Root    594 :    27.019879842181290
 Root    595 :    27.031591029930421
 Root    596 :    27.032878050597134
 Root    597 :    27.037345149550529
 Root    598 :    27.078325093532328
 Root    599 :    27.082133885251633
 Root    600 :    27.114598688492233
 Root    601 :    27.182575058336745
 Root    602 :    27.216112438696022
 Root    603 :    27.238698467569776
 Root    604 :    27.251974541603783
 Root    605 :    27.269915586622034
 Root    606 :    27.282036621105615
 Root    607 :    27.285245086500517
 Root    608 :    27.300000872167107
 Root    609 :    27.303555887740558
 Root    610 :    27.322651346579793
 Root    611 :    27.344868494615788
 Root    612 :    27.403090427981684
 Root    613 :    27.424108007579875
 Root    614 :    27.458328199074863
 Root    615 :    27.459802846650728
 Root    616 :    27.460082771138428
 Root    617 :    27.489241022310239
 Root    618 :    27.501819649012837
 Root    619 :    27.563510557174382
 Root    620 :    27.580847532221238
 Root    621 :    27.656739787939230
 Root    622 :    27.680143549755158
 Root    623 :    27.685655338877798
 Root    624 :    27.707195038351266
 Root    625 :    27.738293275239890
 Root    626 :    27.746708784303589
 Root    627 :    27.816462115050047
 Root    628 :    27.852395463395293
 Root    629 :    27.956540551432813
 Root    630 :    27.957870168432951
 Root    631 :    27.998949345936403
 Root    632 :    28.031994484912026
 Root    633 :    28.081004566891156
 Root    634 :    28.084592826461922
 Root    635 :    28.147588803362744
 Root    636 :    28.174802284699979
 Root    637 :    28.187500585303674
 Root    638 :    28.189493264946094
 Root    639 :    28.223104271149086
 Root    640 :    28.240193213562328
 Root    641 :    28.260905141249086
 Root    642 :    28.277286945268521
 Root    643 :    28.292523115048404
 Root    644 :    28.297472339920198
 Root    645 :    28.373154771248977
 Root    646 :    28.377652014610323
 Root    647 :    28.384121871081621
 Root    648 :    28.385286719767606
 Root    649 :    28.447654866985161
 Root    650 :    28.486680427747469
 Root    651 :    28.502077181089213
 Root    652 :    28.543335227017504
 Root    653 :    28.564817379521340
 Root    654 :    28.628926403870473
 Root    655 :    28.639096829185114
 Root    656 :    28.680080502862246
 Root    657 :    28.723705201016458
 Root    658 :    28.796992851310126
 Root    659 :    28.802795610460958
 Root    660 :    28.945451283482257
 Root    661 :    28.973506651386355
 Root    662 :    28.995078162474204
 Root    663 :    29.013824167872411
 Root    664 :    29.019667891080452
 Root    665 :    29.087565456374421
 Root    666 :    29.091226280568417
 Root    667 :    29.241059128252505
 Root    668 :    29.281729195587701
 Root    669 :    29.315208406811156
 Root    670 :    29.316367625690209
 Root    671 :    29.344145906331558
 Root    672 :    29.348513617035547
 Root    673 :    29.429255435199806
 Root    674 :    29.447376763404868
 Root    675 :    29.483203011430437
 Root    676 :    29.499429882448283
 Root    677 :    29.518788106462420
 Root    678 :    29.567730451537066
 Root    679 :    29.604560664745687
 Root    680 :    29.622346186241639
 Root    681 :    29.630958755202112
 Root    682 :    29.650986221683780
 Root    683 :    29.705596250091649
 Root    684 :    29.705831101196953
 Root    685 :    29.777512938683270
 Root    686 :    29.811488765411092
 Root    687 :    29.834564572946864
 Root    688 :    29.836364191433436
 Root    689 :    29.860440095543762
 Root    690 :    29.952197517568706
 Root    691 :    29.973921546682433
 Root    692 :    30.074629725279397
 Root    693 :    30.094994742392156
 Root    694 :    30.120131570238385
 Root    695 :    30.123865352134615
 Root    696 :    30.135290439066601
 Root    697 :    30.206789635859391
 Root    698 :    30.398315942175749
 Root    699 :    30.429996683252220
 Root    700 :    30.496827187489615
 Root    701 :    30.502327842123290
 Root    702 :    30.510159610026204
 Root    703 :    30.538690440333699
 Root    704 :    30.564603951822637
 Root    705 :    30.660754636866464
 Root    706 :    30.752757646397800
 Root    707 :    30.752823677782633
 Root    708 :    30.759875778592747
 Root    709 :    30.839147458230489
 Root    710 :    30.866469782313441
 Root    711 :    30.877662238056612
 Root    712 :    30.891842021182246
 Root    713 :    30.901270178191020
 Root    714 :    30.917117741892728
 Root    715 :    30.935017686666324
 Root    716 :    30.941737371966870
 Root    717 :    30.962413236933180
 Root    718 :    30.963242006466519
 Root    719 :    30.971896720113161
 Root    720 :    31.025364176385260
 Root    721 :    31.086727052140219
 Root    722 :    31.091741727922802
 Root    723 :    31.157980156962193
 Root    724 :    31.221804435244234
 Root    725 :    31.243749745916990
 Root    726 :    31.298556742795252
 Root    727 :    31.374774111911755
 Root    728 :    31.413702369537859
 Root    729 :    31.443275243736114
 Root    730 :    31.552719456662853
 Root    731 :    31.566284549901916
 Root    732 :    31.604480752962615
 Root    733 :    31.609881320553789
 Root    734 :    31.645326351623247
 Root    735 :    31.651433050258248
 Root    736 :    31.688798502853732
 Root    737 :    31.697467472369098
 Root    738 :    31.708442743995157
 Root    739 :    31.765519477537392
 Root    740 :    31.776228387533312
 Root    741 :    31.808810644102149
 Root    742 :    31.836868471935652
 Root    743 :    31.853719803312654
 Root    744 :    31.855895474956725
 Root    745 :    31.877682728372815
 Root    746 :    31.893480342827182
 Root    747 :    31.895043075589577
 Root    748 :    31.900014360372477
 Root    749 :    31.908344469872542
 Root    750 :    32.012817605851545
 Root    751 :    32.028159491216663
 Root    752 :    32.080883669936497
 Root    753 :    32.093972225649246
 Root    754 :    32.096359643687428
 Root    755 :    32.139513931183437
 Root    756 :    32.191052611191417
 Root    757 :    32.264907457640973
 Root    758 :    32.336690096324695
 Root    759 :    32.426708393259077
 Root    760 :    32.454005719067446
 Root    761 :    32.484679937587565
 Root    762 :    32.509652927424163
 Root    763 :    32.524894888073518
 Root    764 :    32.611112784285503
 Root    765 :    32.644539557922322
 Root    766 :    32.650871008640934
 Root    767 :    32.680698235089054
 Root    768 :    32.710459005045436
 Root    769 :    32.720698231333550
 Root    770 :    32.784475947297778
 Root    771 :    32.790129086095114
 Root    772 :    32.810813993719613
 Root    773 :    32.858842407105548
 Root    774 :    32.894494935840896
 Root    775 :    32.931729026054789
 Root    776 :    32.940612024188795
 Root    777 :    32.983103655713528
 Root    778 :    32.985133419234920
 Root    779 :    33.015368622058482
 Root    780 :    33.023463913238132
 Root    781 :    33.096712862728296
 Root    782 :    33.173827589715387
 Root    783 :    33.255474974910236
 Root    784 :    33.280704062725960
 Root    785 :    33.303355847754112
 Root    786 :    33.333454719152520
 Root    787 :    33.409872602326942
 Root    788 :    33.574518696354986
 Root    789 :    33.597092323348996
 Root    790 :    33.622414802026384
 Root    791 :    33.625843496541414
 Root    792 :    33.671062299262296
 Root    793 :    33.791754230987316
 Root    794 :    33.918582131634658
 Root    795 :    34.454052008645228
 Root    796 :    34.691429959031630
 Root    797 :    34.766158945085223
 Root    798 :    35.511914635106152
 Root    799 :    36.506044064046051
 Root    800 :    36.665524437264317
 Iteration     2 Dimension  1200 NMult   800 NNew    400
 CISAX will form   400 AO SS matrices at one time.
 NMat=   400 NSing=   400 JSym2X=-1.
 Root      1 not converged, maximum delta is    0.006874437048542
 Root      2 not converged, maximum delta is    0.004311468734303
 Root      3 not converged, maximum delta is    0.008109922753001
 Root      4 not converged, maximum delta is    0.009115720238086
 Root      5 not converged, maximum delta is    0.002825073511670
 Root      6 not converged, maximum delta is    0.005590201976085
 Root      7 not converged, maximum delta is    0.033626538580936
 Root      8 not converged, maximum delta is    0.001661405693385
 Root      9 has converged.
 Root     10 not converged, maximum delta is    0.026006595496852
 Root     11 has converged.
 Root     12 not converged, maximum delta is    0.001044656090928
 Root     13 not converged, maximum delta is    0.003073752032005
 New state     14 was old state     16
 Root     14 not converged, maximum delta is    0.060875466179630
 Root     15 not converged, maximum delta is    0.035100117935816
 New state     16 was old state     14
 Root     16 not converged, maximum delta is    0.001533800319404
 New state     17 was old state     18
 Root     17 not converged, maximum delta is    0.019591852873754
 New state     18 was old state     17
 Root     18 not converged, maximum delta is    0.034671030874382
 Root     19 not converged, maximum delta is    0.048230258859882
 Root     20 not converged, maximum delta is    0.001878417054114
 Root     21 not converged, maximum delta is    0.005560536219291
 Root     22 not converged, maximum delta is    0.006457361684990
 Root     23 not converged, maximum delta is    0.003967537279168
 Root     24 has converged.
 Root     25 not converged, maximum delta is    0.003594963769002
 Root     26 not converged, maximum delta is    0.004396676073350
 Root     27 not converged, maximum delta is    0.002873628714299
 Root     28 not converged, maximum delta is    0.014217611557777
 Root     29 not converged, maximum delta is    0.003133081221120
 Root     30 has converged.
 Root     31 not converged, maximum delta is    0.022294049964036
 Root     32 not converged, maximum delta is    0.012459601018468
 Root     33 not converged, maximum delta is    0.015337622621526
 Root     34 not converged, maximum delta is    0.015253036963189
 Root     35 not converged, maximum delta is    0.005299154521331
 Root     36 not converged, maximum delta is    0.001752526117813
 New state     37 was old state     38
 Root     37 not converged, maximum delta is    0.008284116043356
 New state     38 was old state     37
 Root     38 not converged, maximum delta is    0.019059777800931
 Root     39 not converged, maximum delta is    0.001155391767322
 Root     40 not converged, maximum delta is    0.050526682496352
 New state     41 was old state     42
 Root     41 not converged, maximum delta is    0.055351468185046
 New state     42 was old state     41
 Root     42 not converged, maximum delta is    0.005010767782653
 Root     43 not converged, maximum delta is    0.003029488332302
 New state     44 was old state     45
 Root     44 not converged, maximum delta is    0.030956365383153
 New state     45 was old state     44
 Root     45 not converged, maximum delta is    0.002714174524130
 New state     46 was old state     47
 Root     46 not converged, maximum delta is    0.023755075322504
 New state     47 was old state     46
 Root     47 not converged, maximum delta is    0.008596280250269
 Root     48 not converged, maximum delta is    0.021921445301563
 Root     49 has converged.
 Root     50 not converged, maximum delta is    0.234568154665094
 Root     51 not converged, maximum delta is    0.206286460012104
 Root     52 not converged, maximum delta is    0.056222461956062
 Root     53 not converged, maximum delta is    0.010287514180272
 Root     54 not converged, maximum delta is    0.008863079463672
 Root     55 not converged, maximum delta is    0.005928061704735
 Root     56 not converged, maximum delta is    0.011489377607406
 Root     57 not converged, maximum delta is    0.001123239932789
 Root     58 not converged, maximum delta is    0.015128368388722
 Root     59 not converged, maximum delta is    0.003496325974042
 Root     60 not converged, maximum delta is    0.013877035178487
 Root     61 not converged, maximum delta is    0.003444678848280
 Root     62 has converged.
 Root     63 not converged, maximum delta is    0.011621397749110
 Root     64 not converged, maximum delta is    0.022533173215195
 Root     65 not converged, maximum delta is    0.027498358533087
 Root     66 not converged, maximum delta is    0.009808153969162
 Root     67 not converged, maximum delta is    0.014677964876482
 Root     68 not converged, maximum delta is    0.093069235043368
 Root     69 not converged, maximum delta is    0.062436010824083
 Root     70 not converged, maximum delta is    0.117694279779033
 Root     71 not converged, maximum delta is    0.023340206695094
 Root     72 not converged, maximum delta is    0.023426054394720
 Root     73 not converged, maximum delta is    0.034041009705257
 Root     74 not converged, maximum delta is    0.033824482469132
 New state     75 was old state     77
 Root     75 not converged, maximum delta is    0.138365446955654
 Root     76 not converged, maximum delta is    0.010139474384012
 New state     77 was old state     75
 Root     77 not converged, maximum delta is    0.005162725029382
 Root     78 not converged, maximum delta is    0.101711132252931
 Root     79 not converged, maximum delta is    0.032520265124831
 Root     80 not converged, maximum delta is    0.101533772421210
 Root     81 not converged, maximum delta is    0.006957858292003
 Root     82 not converged, maximum delta is    0.016779271497948
 Root     83 not converged, maximum delta is    0.004168512674500
 New state     84 was old state     89
 Root     84 not converged, maximum delta is    0.037001091731948
 Root     85 not converged, maximum delta is    0.006641546826614
 New state     86 was old state     84
 Root     86 not converged, maximum delta is    0.018842880427489
 New state     87 was old state     86
 Root     87 not converged, maximum delta is    0.014183316585380
 New state     88 was old state     87
 Root     88 not converged, maximum delta is    0.003027548882699
 New state     89 was old state     88
 Root     89 not converged, maximum delta is    0.004826807464923
 Root     90 not converged, maximum delta is    0.033854661457292
 Root     91 not converged, maximum delta is    0.014842858693205
 New state     92 was old state     93
 Root     92 not converged, maximum delta is    0.031114892272913
 New state     93 was old state     92
 Root     93 not converged, maximum delta is    0.026689910591256
 Root     94 not converged, maximum delta is    0.001428709911461
 Root     95 not converged, maximum delta is    0.007835661708708
 Root     96 not converged, maximum delta is    0.003368748713364
 Root     97 not converged, maximum delta is    0.028743860023826
 Root     98 not converged, maximum delta is    0.001025619957466
 Root     99 not converged, maximum delta is    0.098748880183310
 Root    100 not converged, maximum delta is    0.012495491774065
 Root    101 not converged, maximum delta is    0.100010743637965
 Root    102 not converged, maximum delta is    0.028317929973704
 Root    103 not converged, maximum delta is    0.044267581564527
 Root    104 not converged, maximum delta is    0.005986324216996
 Root    105 not converged, maximum delta is    0.007479061569999
 Root    106 not converged, maximum delta is    0.004867395869095
 Root    107 not converged, maximum delta is    0.010450992568719
 Root    108 not converged, maximum delta is    0.008095786190555
 New state    109 was old state    112
 Root    109 not converged, maximum delta is    0.032633094469285
 New state    110 was old state    109
[...]
     14  -0.979590D+00  0.549893D-01  0.356072D-03  0.000000D+00  0.000000D+00
     15   0.000000D+00  0.000000D+00  0.000000D+00 -0.685079D-01 -0.258454D+00
     16   0.000000D+00  0.000000D+00  0.000000D+00  0.110754D+00  0.418350D+00
               131           132           133           134           135 
      1  -0.263916D+03 -0.263915D+03 -0.263915D+03 -0.263909D+03 -0.263908D+03
      2   0.321395D+00  0.000000D+00 -0.124693D-02  0.300162D+00  0.512507D+00
      3   0.198607D+00  0.000000D+00 -0.718892D-03  0.185255D+00 -0.829615D+00
      4   0.000000D+00 -0.851684D-04  0.000000D+00  0.000000D+00  0.000000D+00
      5  -0.151832D+00  0.000000D+00  0.574470D-03 -0.142760D+00 -0.244121D+00
      6  -0.938256D-01  0.000000D+00  0.331034D-03 -0.881085D-01  0.395169D+00
      7   0.000000D+00  0.400905D-04  0.000000D+00  0.000000D+00  0.000000D+00
      8   0.000000D+00 -0.327125D+00  0.000000D+00  0.000000D+00  0.000000D+00
      9   0.000000D+00  0.529320D+00  0.000000D+00  0.000000D+00  0.000000D+00
     10  -0.628161D-05  0.000000D+00 -0.462565D-04  0.687340D-04 -0.296694D-02
     11   0.331651D-03  0.000000D+00  0.850381D+00  0.385585D-03 -0.929053D-02
     12   0.109853D-02  0.000000D+00  0.506972D+00  0.481298D-03  0.936224D-02
     13   0.460042D-04  0.000000D+00  0.102140D+00 -0.177312D-03  0.160113D-04
     14  -0.772350D-03  0.000000D+00  0.343106D+00  0.651897D-04  0.472810D-02
     15   0.000000D+00 -0.988942D+00  0.000000D+00  0.000000D+00  0.000000D+00
     16   0.000000D+00 -0.611059D+00  0.000000D+00  0.000000D+00  0.000000D+00
               136           137           138           139           140 
      1  -0.263908D+03 -0.263906D+03 -0.263905D+03 -0.263905D+03 -0.263898D+03
      2  -0.534543D-02  0.000000D+00  0.000000D+00 -0.996664D-01  0.000000D+00
      3   0.862227D-02  0.000000D+00  0.000000D+00 -0.616477D-01  0.000000D+00
      4   0.000000D+00 -0.325609D+00  0.349135D-05  0.000000D+00  0.145271D-05
      5   0.254903D-02  0.000000D+00  0.000000D+00  0.456775D-01  0.000000D+00
      6  -0.411165D-02  0.000000D+00  0.000000D+00  0.282551D-01  0.000000D+00
      7   0.000000D+00  0.149967D+00 -0.164739D-05  0.000000D+00  0.000000D+00
      8   0.000000D+00  0.140849D-03 -0.599445D+00  0.000000D+00  0.902586D+00
      9   0.000000D+00 -0.230236D-03 -0.370369D+00  0.000000D+00  0.557567D+00
     10   0.279146D-01  0.000000D+00  0.000000D+00 -0.250689D-04  0.000000D+00
     11  -0.799573D+00  0.000000D+00  0.000000D+00 -0.267073D-03  0.000000D+00
     12   0.799612D+00  0.000000D+00  0.000000D+00 -0.124576D-02  0.000000D+00
     13   0.120330D-04  0.000000D+00  0.000000D+00  0.787234D-03  0.000000D+00
     14   0.400059D+00  0.000000D+00  0.000000D+00  0.961962D-03  0.000000D+00
     15   0.000000D+00  0.439759D-03 -0.470141D-01  0.000000D+00 -0.338612D+00
     16   0.000000D+00  0.266212D-03  0.760975D-01  0.000000D+00  0.548224D+00
               141           142           143           144           145 
      1  -0.263898D+03 -0.263897D+03 -0.263897D+03 -0.263896D+03 -0.263896D+03
      2   0.232106D+00 -0.150765D-01  0.000000D+00 -0.110460D-02  0.732385D-01
      3   0.143407D+00  0.242883D-01  0.000000D+00  0.179083D-02  0.452902D-01
      4   0.000000D+00  0.000000D+00  0.870308D-05  0.000000D+00  0.000000D+00
      5  -0.109961D+00  0.773326D-03  0.000000D+00  0.528350D-03 -0.348487D-01
      6  -0.679386D-01 -0.119749D-02  0.000000D+00 -0.856455D-03 -0.215447D-01
      7   0.000000D+00  0.000000D+00 -0.437085D-05  0.000000D+00  0.000000D+00
      8   0.000000D+00  0.000000D+00  0.847684D-03  0.000000D+00  0.000000D+00
      9   0.000000D+00  0.000000D+00  0.525632D-03  0.000000D+00  0.000000D+00
     10   0.131499D-05  0.403931D-03  0.000000D+00 -0.583374D+00  0.133343D-04
     11  -0.322108D-03 -0.123356D-02  0.000000D+00  0.736413D+00 -0.861574D-04
     12  -0.551681D-03  0.124062D-02  0.000000D+00 -0.736395D+00 -0.104534D-02
     13  -0.279801D-03  0.302781D-05  0.000000D+00 -0.230168D-05  0.263321D-03
     14   0.202670D-03  0.628930D-03  0.000000D+00 -0.368461D+00  0.106674D-02
     15   0.000000D+00  0.000000D+00 -0.225634D-03  0.000000D+00  0.000000D+00
     16   0.000000D+00  0.000000D+00  0.365232D-03  0.000000D+00  0.000000D+00
               146           147           148           149           150 
      1  -0.263896D+03 -0.263894D+03 -0.263893D+03 -0.263892D+03 -0.263891D+03
      2   0.000000D+00  0.000000D+00 -0.244978D-01  0.000000D+00  0.824098D-01
      3   0.000000D+00  0.000000D+00  0.397318D-01  0.000000D+00 -0.133386D+00
      4  -0.247255D-03  0.120939D+00  0.000000D+00  0.968645D-05  0.000000D+00
      5   0.000000D+00  0.000000D+00  0.970684D-02  0.000000D+00 -0.388457D-01
      6   0.000000D+00  0.000000D+00 -0.157514D-01  0.000000D+00  0.628743D-01
      7   0.126976D-03 -0.530063D-01  0.000000D+00 -0.398507D-05  0.000000D+00
      8  -0.165712D-02 -0.655662D-04  0.000000D+00 -0.109709D+00  0.000000D+00
      9   0.301595D-02  0.166541D-03  0.000000D+00 -0.677946D-01  0.000000D+00
     10   0.000000D+00  0.000000D+00 -0.169442D-02  0.000000D+00  0.440560D-03
     11   0.000000D+00  0.000000D+00  0.921102D-03  0.000000D+00 -0.330198D-03
     12   0.000000D+00  0.000000D+00 -0.944084D-03  0.000000D+00  0.285235D-03
     13   0.000000D+00  0.000000D+00 -0.162406D-05  0.000000D+00 -0.996150D-05
     14   0.000000D+00  0.000000D+00 -0.474288D-03  0.000000D+00  0.157742D-03
     15  -0.166557D+00 -0.715668D-03  0.000000D+00 -0.837135D-01  0.000000D+00
     16  -0.102768D+00 -0.519766D-03  0.000000D+00  0.135633D+00  0.000000D+00
               151           152           153           154           155 
      1  -0.263891D+03 -0.263890D+03 -0.263888D+03 -0.263887D+03 -0.263887D+03
      2   0.107659D+00  0.184928D-03  0.000000D+00  0.278330D+00  0.000000D+00
      3  -0.174284D+00  0.125196D-03  0.000000D+00  0.171875D+00  0.000000D+00
      4   0.000000D+00  0.000000D+00  0.472236D+00  0.000000D+00 -0.396769D-04
      5  -0.545179D-01 -0.817155D-04  0.000000D+00 -0.136927D+00  0.000000D+00
      6   0.882586D-01 -0.560841D-04  0.000000D+00 -0.845533D-01  0.000000D+00
      7   0.000000D+00  0.000000D+00 -0.221923D+00  0.000000D+00  0.226444D-04
      8   0.000000D+00  0.000000D+00 -0.592562D-04  0.000000D+00 -0.874751D-01
      9   0.000000D+00  0.000000D+00  0.785808D-04  0.000000D+00  0.141728D+00
     10  -0.197903D-02  0.491837D-04  0.000000D+00  0.788497D-04  0.000000D+00
     11   0.107806D-02 -0.844865D+00  0.000000D+00 -0.407743D-02  0.000000D+00
     12  -0.111217D-02 -0.802842D+00  0.000000D+00 -0.379471D-02  0.000000D+00
     13  -0.587211D-05 -0.222272D+00  0.000000D+00  0.165646D-03  0.000000D+00
     14  -0.544371D-03 -0.420176D-01  0.000000D+00 -0.251343D-03  0.000000D+00
     15   0.000000D+00  0.000000D+00 -0.450396D-03  0.000000D+00  0.343361D-01
     16   0.000000D+00  0.000000D+00 -0.289244D-03  0.000000D+00  0.212681D-01
               156           157           158           159           160 
      1  -0.263885D+03 -0.263884D+03 -0.263884D+03 -0.263883D+03 -0.263882D+03
      2  -0.153390D+00  0.554288D-03 -0.197552D-02  0.000000D+00 -0.412101D+00
      3   0.248467D+00  0.319894D-03  0.338131D-02  0.000000D+00 -0.254593D+00
      4   0.000000D+00  0.000000D+00  0.000000D+00  0.546709D-03  0.000000D+00
      5   0.842747D-01 -0.271697D-03  0.103892D-02  0.000000D+00  0.207998D+00
      6  -0.136502D+00 -0.156345D-03 -0.177396D-02  0.000000D+00  0.128497D+00
      7   0.000000D+00  0.000000D+00  0.000000D+00 -0.260139D-03  0.000000D+00
      8   0.000000D+00  0.000000D+00  0.000000D+00  0.190660D+00  0.000000D+00
      9   0.000000D+00  0.000000D+00  0.000000D+00 -0.308654D+00  0.000000D+00
     10   0.164868D-01 -0.275357D-03 -0.273203D+01  0.000000D+00 -0.286260D-03
     11  -0.222425D-02  0.124403D+00  0.462732D+00  0.000000D+00 -0.114832D-02
     12   0.226869D-02  0.478494D-01 -0.462822D+00  0.000000D+00  0.911778D-03
     13   0.172579D-05 -0.695300D-01 -0.250800D-04  0.000000D+00 -0.843119D-03
     14   0.113208D-02  0.764083D-01 -0.231639D+00  0.000000D+00 -0.218347D-02
     15   0.000000D+00  0.000000D+00  0.000000D+00  0.508248D+00  0.000000D+00
     16   0.000000D+00  0.000000D+00  0.000000D+00  0.313979D+00  0.000000D+00
               161           162           163           164           165 
      1  -0.263881D+03 -0.263880D+03 -0.263879D+03 -0.263878D+03 -0.263877D+03
      2  -0.702571D-03  0.634537D-04 -0.689632D-03  0.000000D+00  0.000000D+00
      3  -0.401163D-03 -0.112693D-03 -0.417792D-03  0.000000D+00  0.000000D+00
      4   0.000000D+00  0.000000D+00  0.000000D+00  0.000000D+00 -0.389834D-04
      5   0.349752D-03 -0.278541D-04  0.338388D-03  0.000000D+00  0.000000D+00
      6   0.199546D-03  0.500954D-04  0.204990D-03  0.000000D+00  0.000000D+00
      7   0.000000D+00  0.000000D+00  0.000000D+00  0.000000D+00  0.201829D-04
      8   0.000000D+00  0.000000D+00  0.000000D+00  0.146271D+00 -0.147057D-02
      9   0.000000D+00  0.000000D+00  0.000000D+00  0.903717D-01 -0.901638D-03
     10  -0.137113D-03  0.178858D+00 -0.299714D-03  0.000000D+00  0.000000D+00
     11  -0.778692D+00 -0.230399D-01  0.772013D+00  0.000000D+00  0.000000D+00
     12  -0.731720D+00  0.234122D-01  0.129161D+00  0.000000D+00  0.000000D+00
     13  -0.190122D+00  0.770597D-04  0.240012D+00  0.000000D+00  0.000000D+00
     14  -0.470090D-01  0.117443D-01  0.642219D+00  0.000000D+00  0.000000D+00
     15   0.000000D+00  0.000000D+00  0.000000D+00 -0.109250D+00 -0.762188D-03
     16   0.000000D+00  0.000000D+00  0.000000D+00  0.176825D+00  0.122927D-02
               166           167           168           169           170 
      1  -0.263877D+03 -0.263877D+03 -0.263876D+03 -0.263875D+03 -0.263874D+03
      2   0.694532D-03 -0.216814D+00  0.000000D+00  0.638482D+00 -0.267161D+00
      3   0.578866D-03  0.350961D+00  0.000000D+00  0.394239D+00  0.433477D+00
      4   0.000000D+00  0.000000D+00 -0.167360D+00  0.000000D+00  0.000000D+00
      5  -0.373168D-03  0.109217D+00  0.000000D+00 -0.335083D+00  0.134916D+00
      6  -0.305928D-03 -0.176792D+00  0.000000D+00 -0.206908D+00 -0.218928D+00
      7   0.000000D+00  0.000000D+00  0.849727D-01  0.000000D+00  0.000000D+00
      8   0.000000D+00  0.000000D+00  0.227670D-03  0.000000D+00  0.000000D+00
      9   0.000000D+00  0.000000D+00 -0.360595D-03  0.000000D+00  0.000000D+00
     10  -0.897524D-04  0.267681D-02  0.000000D+00  0.455387D-04 -0.123775D-02
     11   0.743847D+00  0.292448D-03  0.000000D+00 -0.153519D-02  0.208861D-02
     12   0.719725D+00 -0.726539D-03  0.000000D+00 -0.470624D-03 -0.207293D-02
     13   0.320326D+00 -0.949015D-04  0.000000D+00 -0.595554D-03  0.720991D-05
     14   0.240318D-01 -0.257338D-03  0.000000D+00 -0.103018D-02 -0.102380D-02
     15   0.000000D+00  0.000000D+00  0.636866D-03  0.000000D+00  0.000000D+00
     16   0.000000D+00  0.000000D+00  0.395331D-03  0.000000D+00  0.000000D+00
               171           172           173           174           175 
      1  -0.263873D+03 -0.263873D+03 -0.263873D+03 -0.263872D+03 -0.263868D+03
      2   0.406115D-01  0.256073D+00  0.389688D+00  0.000000D+00 -0.186358D-05
      3  -0.656194D-01 -0.413717D+00  0.240842D+00  0.000000D+00  0.124596D-04
      4   0.000000D+00  0.000000D+00  0.000000D+00  0.000000D+00  0.000000D+00
      5  -0.209536D-01 -0.132163D+00 -0.208760D+00  0.000000D+00  0.609580D-05
      6   0.338556D-01  0.213517D+00 -0.129022D+00  0.000000D+00 -0.316820D-05
      7   0.000000D+00  0.000000D+00  0.000000D+00  0.000000D+00  0.000000D+00
      8   0.000000D+00  0.000000D+00  0.000000D+00 -0.420136D+00  0.000000D+00
      9   0.000000D+00  0.000000D+00  0.000000D+00 -0.259483D+00  0.000000D+00
     10  -0.161143D+00  0.247842D-01  0.559951D-04  0.000000D+00  0.219285D-04
     11   0.711825D+00 -0.111783D+00 -0.151989D-02  0.000000D+00  0.262009D+00
     12  -0.711852D+00  0.111750D+00 -0.146595D-02  0.000000D+00 -0.862639D+00
     13   0.540209D-05 -0.877458D-05 -0.376267D-03  0.000000D+00  0.590119D-01
     14  -0.356167D+00  0.559007D-01 -0.714542D-04  0.000000D+00  0.112388D+01
     15   0.000000D+00  0.000000D+00  0.000000D+00  0.409928D+00  0.000000D+00
     16   0.000000D+00  0.000000D+00  0.000000D+00 -0.663598D+00  0.000000D+00
               176           177           178           179           180 
      1  -0.263868D+03 -0.263867D+03 -0.263864D+03 -0.263862D+03 -0.263861D+03
      2  -0.240553D+00  0.000000D+00  0.524154D-03  0.000000D+00  0.000000D+00
      3   0.389360D+00  0.000000D+00  0.323646D-03  0.000000D+00  0.000000D+00
      4   0.000000D+00 -0.384287D-03  0.000000D+00  0.510804D-05 -0.128808D+00
      5   0.123638D+00  0.000000D+00  0.266255D-02  0.000000D+00  0.000000D+00
      6  -0.200120D+00  0.000000D+00  0.164439D-02  0.000000D+00  0.000000D+00
      7   0.000000D+00  0.185473D-03  0.000000D+00 -0.286689D-05  0.706856D-01
      8   0.000000D+00  0.909230D-01  0.000000D+00  0.116110D+00  0.392823D-04
      9   0.000000D+00 -0.147134D+00  0.000000D+00  0.717162D-01 -0.607133D-04
     10   0.101666D-02  0.000000D+00  0.315513D-04  0.000000D+00  0.000000D+00
     11  -0.827030D-03  0.000000D+00 -0.813111D-03  0.000000D+00  0.000000D+00
     12   0.827268D-03  0.000000D+00  0.701677D-03  0.000000D+00  0.000000D+00
     13  -0.450705D-05  0.000000D+00  0.506885D-04  0.000000D+00  0.000000D+00
     14   0.381442D-03  0.000000D+00 -0.149519D-02  0.000000D+00  0.000000D+00
     15   0.000000D+00  0.239177D+00  0.000000D+00 -0.150295D+00 -0.519833D-04
     16   0.000000D+00  0.147821D+00  0.000000D+00  0.243288D+00 -0.398005D-04
               181           182           183           184           185 
      1  -0.263861D+03 -0.263860D+03 -0.263859D+03 -0.263857D+03 -0.263857D+03
      2  -0.314740D-04  0.000000D+00 -0.413948D-04  0.253307D-01  0.000000D+00
      3   0.267189D-05  0.000000D+00 -0.346574D-04  0.156530D-01  0.000000D+00
      4   0.000000D+00 -0.609414D-05  0.000000D+00  0.000000D+00  0.129861D-04
      5   0.184191D-04  0.000000D+00  0.126201D-04 -0.198729D-01  0.000000D+00
      6  -0.469741D-05  0.000000D+00  0.126291D-04 -0.122796D-01  0.000000D+00
      7   0.000000D+00  0.242599D-05  0.000000D+00  0.000000D+00 -0.610167D-05
      8   0.000000D+00 -0.543627D-03  0.000000D+00  0.000000D+00  0.159419D+00
      9   0.000000D+00 -0.338539D-03  0.000000D+00  0.000000D+00  0.985117D-01
     10  -0.311829D+00  0.000000D+00 -0.229894D-04  0.565618D-04  0.000000D+00
     11  -0.324942D+00  0.000000D+00 -0.481649D+00  0.153190D-02  0.000000D+00
     12   0.324941D+00  0.000000D+00 -0.110113D+01  0.315068D-03  0.000000D+00
     13  -0.176456D-05  0.000000D+00 -0.244464D-01 -0.166772D-03  0.000000D+00
     14   0.162597D+00  0.000000D+00  0.619018D+00  0.128756D-02  0.000000D+00
     15   0.000000D+00  0.120841D-03  0.000000D+00  0.000000D+00  0.198107D+00
     16   0.000000D+00 -0.200605D-03  0.000000D+00  0.000000D+00 -0.320510D+00
               186           187           188           189           190 
      1  -0.263855D+03 -0.263855D+03 -0.263854D+03 -0.263854D+03 -0.263852D+03
      2  -0.229446D+00  0.000000D+00  0.000000D+00  0.226937D-03  0.000000D+00
      3  -0.141785D+00  0.000000D+00  0.000000D+00 -0.644099D-03  0.000000D+00
      4   0.000000D+00  0.248021D+00  0.428365D-02  0.000000D+00  0.349620D-05
      5   0.122060D+00  0.000000D+00  0.000000D+00 -0.118381D-03  0.000000D+00
      6   0.754262D-01  0.000000D+00  0.000000D+00  0.338633D-03  0.000000D+00
      7   0.000000D+00 -0.114343D+00 -0.198530D-02  0.000000D+00 -0.165584D-05
      8   0.000000D+00 -0.144635D-02  0.789600D-01  0.000000D+00 -0.437300D+00
      9   0.000000D+00  0.232192D-02 -0.128041D+00  0.000000D+00 -0.270114D+00
     10   0.255764D-03  0.000000D+00  0.000000D+00 -0.994541D+00  0.000000D+00
     11  -0.434005D-03  0.000000D+00  0.000000D+00  0.728886D+00  0.000000D+00
     12   0.418291D-03  0.000000D+00  0.000000D+00 -0.728901D+00  0.000000D+00
     13  -0.184856D-04  0.000000D+00  0.000000D+00  0.270062D-05  0.000000D+00
     14  -0.492437D-03  0.000000D+00  0.000000D+00 -0.364716D+00  0.000000D+00
     15   0.000000D+00  0.440381D-02 -0.261376D+00  0.000000D+00  0.486888D+00
     16   0.000000D+00  0.277203D-02 -0.162004D+00  0.000000D+00 -0.787936D+00
               191           192           193           194           195 
      1  -0.263851D+03 -0.263850D+03 -0.263849D+03 -0.263848D+03 -0.263848D+03
      2  -0.602312D+00  0.000000D+00 -0.606966D-03 -0.131833D-03  0.000000D+00
      3  -0.372154D+00  0.000000D+00 -0.368713D-03  0.526503D-03  0.000000D+00
      4   0.000000D+00 -0.244461D-05  0.000000D+00  0.000000D+00  0.000000D+00
      5   0.325336D+00  0.000000D+00  0.329016D-03  0.663769D-04  0.000000D+00
      6   0.201017D+00  0.000000D+00  0.200089D-03 -0.276928D-03  0.000000D+00
      7   0.000000D+00  0.140603D-05  0.000000D+00  0.000000D+00  0.000000D+00
      8   0.000000D+00 -0.223207D-02  0.000000D+00  0.000000D+00  0.108800D-02
      9   0.000000D+00 -0.138294D-02  0.000000D+00  0.000000D+00  0.664651D-03
     10   0.122989D-03  0.000000D+00 -0.840948D-05  0.432074D+00  0.000000D+00
     11  -0.151210D-03  0.000000D+00  0.303304D+00 -0.100018D+01  0.000000D+00
     12  -0.124024D-03  0.000000D+00  0.917976D+00  0.100026D+01  0.000000D+00
     13  -0.368795D-03  0.000000D+00  0.316224D+00  0.122038D-04  0.000000D+00
     14   0.252710D-03  0.000000D+00 -0.614409D+00  0.500382D+00  0.000000D+00
     15   0.000000D+00  0.268029D-02  0.000000D+00  0.000000D+00 -0.102832D-02
     16   0.000000D+00 -0.440157D-02  0.000000D+00  0.000000D+00  0.164346D-02
               196           197           198           199           200 
      1  -0.263848D+03 -0.263848D+03 -0.263847D+03 -0.263847D+03 -0.263846D+03
      2   0.186915D+00  0.384325D+00  0.000000D+00  0.000000D+00  0.226376D-01
      3   0.115407D+00 -0.622003D+00  0.000000D+00  0.000000D+00  0.138913D-01
      4   0.000000D+00  0.000000D+00 -0.313576D+00  0.713626D-05  0.000000D+00
      5  -0.100857D+00 -0.204498D+00  0.000000D+00  0.000000D+00 -0.944068D-02
      6  -0.622726D-01  0.330965D+00  0.000000D+00  0.000000D+00 -0.578135D-02
      7   0.000000D+00  0.000000D+00  0.170449D+00 -0.414177D-05  0.000000D+00
      8   0.000000D+00  0.000000D+00 -0.124268D-03 -0.725177D-03  0.000000D+00
      9   0.000000D+00  0.000000D+00  0.207266D-03 -0.447266D-03  0.000000D+00
     10  -0.243461D-03 -0.608590D-04  0.000000D+00  0.000000D+00 -0.584194D-05
     11   0.124638D-02 -0.254802D-02  0.000000D+00  0.000000D+00 -0.799431D-03
     12   0.132062D-02  0.261471D-02  0.000000D+00  0.000000D+00 -0.411585D-03
     13  -0.449997D-05  0.559672D-05  0.000000D+00  0.000000D+00  0.148989D-03
     14  -0.156884D-02  0.125918D-02  0.000000D+00  0.000000D+00 -0.191931D-03
     15   0.000000D+00  0.000000D+00 -0.342621D-03  0.797629D-03  0.000000D+00
     16   0.000000D+00  0.000000D+00 -0.214439D-03 -0.128227D-02  0.000000D+00

 Test job not archived.
 1\1\GINC-CPN-C05-04\SP\RB3LYP TD-FC\6-311++G(d,p)\C4H4N2\AKRAMER9\04-M
 ay-2026\0\\#P B3LYP/6-311++G(d,p) TD=(NStates=200) IOp(9/40=5) gfinput
 \\Pyraz_cd_300_full\\0,1\C,0,1.192,-0.59648,0.\N,0,1.19397,0.73769,0.\
 C,0,-0.00007,1.33292,0.\C,0,0.,-1.33288,0.\C,0,-1.192,0.59641,0.\N,0,-
 1.19416,-0.73781,0.\H,0,2.16611,-1.10214,0.\H,0,-0.01641,2.43033,0.\H,
 0,-2.16521,1.10265,0.\H,0,0.01727,-2.42974,0.\\Version=ES64L-G16RevC.0
 2\State=1-A'\HF=-264.3869431\RMSD=3.270e-09\PG=CS [SG(C4H4N2)]\\@


 The impersonal hand of government can
 never replace the helping hand of a neighbor.
                        -- Hubert H. Humphrey
 Job cpu time:       0 days  0 hours 30 minutes 13.5 seconds.
 Elapsed time:       0 days  0 hours  7 minutes 44.6 seconds.
 File lengths (MBytes):  RWF=   3684 Int=      0 D2E=      0 Chk=    152 Scr=      1
 Normal termination of Gaussian 16 at Mon May  4 00:30:23 2026.
