declare -x SLURMD_NODENAME="cpn-h22-04"
declare -x SLURMTMPDIR="/scratch/20838873"
declare -x SLURM_CLUSTER_NAME="ub-hpc"
declare -x SLURM_CONF="/var/spool/slurmd/conf-cache/slurm.conf"
declare -x SLURM_CPUS_ON_NODE="4"
declare -x SLURM_GTIDS="0"
declare -x SLURM_JOBID="20838873"
declare -x SLURM_JOB_ACCOUNT="jochena"
declare -x SLURM_JOB_CPUS_PER_NODE="4"
declare -x SLURM_JOB_END_TIME="1754622438"
declare -x SLURM_JOB_GID="89252725"
declare -x SLURM_JOB_ID="20838873"
declare -x SLURM_JOB_NAME="Pyraz_cd_200_full_ext"
declare -x SLURM_JOB_NODELIST="cpn-h22-04"
declare -x SLURM_JOB_NUM_NODES="1"
declare -x SLURM_JOB_PARTITION="general-compute"
declare -x SLURM_JOB_QOS="supporters"
declare -x SLURM_JOB_START_TIME="1754608038"
declare -x SLURM_JOB_UID="89252725"
declare -x SLURM_JOB_USER="akramer9"
declare -x SLURM_LOCALID="0"
declare -x SLURM_MEM_PER_CPU="2800"
declare -x SLURM_NNODES="1"
declare -x SLURM_NODEID="0"
declare -x SLURM_NODELIST="cpn-h22-04"
declare -x SLURM_NPROCS="4"
declare -x SLURM_NTASKS="4"
declare -x SLURM_NTASKS_PER_NODE="4"
declare -x SLURM_PRIO_PROCESS="0"
declare -x SLURM_PROCID="0"
declare -x SLURM_SCRIPT_CONTEXT="prolog_task"
declare -x SLURM_SUBMIT_DIR="/projects/academic/jochena/akramer9/Favereau_MCD_Collab/MCD_Tests"
declare -x SLURM_SUBMIT_HOST="login1.cbls.ccr.buffalo.edu"
declare -x SLURM_TASKS_PER_NODE="4"
declare -x SLURM_TASK_PID="1381291"
declare -x SLURM_TOPOLOGY_ADDR="core-fabric.swe-h22-22.cpn-h22-04"
declare -x SLURM_TOPOLOGY_ADDR_PATTERN="switch.switch.node"

Currently Loaded Modules:
  1) ccrenv         (H)        3) ccrsoft/2023.01       (S)
  2) gentoo/2023.01 (H,S,os)   4) gaussian/16.C.02-AVX2 (chem)

  Where:
   H:     Hidden Module
   S:     Module is Sticky, requires --force to unload or purge
   chem:  Chemistry libraries/apps
   os:    Base OS

 

/projects/academic/jochena/software/easybuild/2023.01/software/Core/gaussian/16.C.02-AVX2/g16/g16
 Entering Gaussian System, Link 0=g16
 Initial command:
 /projects/academic/jochena/software/easybuild/2023.01/software/Core/gaussian/16.C.02-AVX2/g16/l1.exe "/scratch/20838873/Gau-1381390.inp" -scrdir="/scratch/20838873/"
 Entering Link 1 = /projects/academic/jochena/software/easybuild/2023.01/software/Core/gaussian/16.C.02-AVX2/g16/l1.exe PID=   1381392.
  
 Copyright (c) 1988-2021, Gaussian, Inc.  All Rights Reserved.
  
 This is part of the Gaussian(R) 16 program.  It is based on
 the Gaussian(R) 09 system (copyright 2009, Gaussian, Inc.),
 the Gaussian(R) 03 system (copyright 2003, Gaussian, Inc.),
 the Gaussian(R) 98 system (copyright 1998, Gaussian, Inc.),
 the Gaussian(R) 94 system (copyright 1995, Gaussian, Inc.),
 the Gaussian 92(TM) system (copyright 1992, Gaussian, Inc.),
 the Gaussian 90(TM) system (copyright 1990, Gaussian, Inc.),
 the Gaussian 88(TM) system (copyright 1988, Gaussian, Inc.),
 the Gaussian 86(TM) system (copyright 1986, Carnegie Mellon
 University), and the Gaussian 82(TM) system (copyright 1983,
 Carnegie Mellon University). Gaussian is a federally registered
 trademark of Gaussian, Inc.
  
 This software contains proprietary and confidential information,
 including trade secrets, belonging to Gaussian, Inc.
  
 This software is provided under written license and may be
 used, copied, transmitted, or stored only in accord with that
 written license.
  
 The following legend is applicable only to US Government
 contracts under FAR:
  
                    RESTRICTED RIGHTS LEGEND
  
 Use, reproduction and disclosure by the US Government is
 subject to restrictions as set forth in subparagraphs (a)
 and (c) of the Commercial Computer Software - Restricted
 Rights clause in FAR 52.227-19.
  
 Gaussian, Inc.
 340 Quinnipiac St., Bldg. 40, Wallingford CT 06492
  
  
 ---------------------------------------------------------------
 Warning -- This program may not be used in any manner that
 competes with the business of Gaussian, Inc. or will provide
 assistance to any competitor of Gaussian, Inc.  The licensee
 of this program is prohibited from giving any competitor of
 Gaussian, Inc. access to this program.  By using this program,
 the user acknowledges that Gaussian, Inc. is engaged in the
 business of creating and licensing software in the field of
 computational chemistry and represents and warrants to the
 licensee that it is not a competitor of Gaussian, Inc. and that
 it will not use this program in any manner prohibited above.
 ---------------------------------------------------------------
  

 Cite this work as:
 Gaussian 16, Revision C.02,
 M. J. Frisch, G. W. Trucks, H. B. Schlegel, G. E. Scuseria, 
 M. A. Robb, J. R. Cheeseman, G. Scalmani, V. Barone, 
 G. A. Petersson, H. Nakatsuji, X. Li, M. Caricato, A. V. Marenich, 
 J. Bloino, B. G. Janesko, R. Gomperts, B. Mennucci, H. P. Hratchian, 
 J. V. Ortiz, A. F. Izmaylov, J. L. Sonnenberg, D. Williams-Young, 
 F. Ding, F. Lipparini, F. Egidi, J. Goings, B. Peng, A. Petrone, 
 T. Henderson, D. Ranasinghe, V. G. Zakrzewski, J. Gao, N. Rega, 
 G. Zheng, W. Liang, M. Hada, M. Ehara, K. Toyota, R. Fukuda, 
 J. Hasegawa, M. Ishida, T. Nakajima, Y. Honda, O. Kitao, H. Nakai, 
 T. Vreven, K. Throssell, J. A. Montgomery, Jr., J. E. Peralta, 
 F. Ogliaro, M. J. Bearpark, J. J. Heyd, E. N. Brothers, K. N. Kudin, 
 V. N. Staroverov, T. A. Keith, R. Kobayashi, J. Normand, 
 K. Raghavachari, A. P. Rendell, J. C. Burant, S. S. Iyengar, 
 J. Tomasi, M. Cossi, J. M. Millam, M. Klene, C. Adamo, R. Cammi, 
 J. W. Ochterski, R. L. Martin, K. Morokuma, O. Farkas, 
 J. B. Foresman, and D. J. Fox, Gaussian, Inc., Wallingford CT, 2019.
 
 ******************************************
 Gaussian 16:  ES64L-G16RevC.02  7-Dec-2021
                 7-Aug-2025 
 ******************************************
 %NProc=4
 Will use up to    4 processors via shared memory.
 %Mem=8000Mb
 %chk=/projects/academic/jochena/akramer9/Favereau_MCD_Collab/MCD_Tests/Pyraz_cd_
 200_full_ext.chk
 ----------------------------------------------------------------------
 #P B3LYP/6-311++G(d,p) TD=(NStates=200) IOp(9/40=5) geom=check gfinput
 ----------------------------------------------------------------------
 1/29=2,38=1,172=1/1;
 2/12=2,40=1/2;
 3/5=4,6=6,7=1111,11=9,14=-4,24=10,25=1,30=1,74=-5/1,2,3,8;
 4//1;
 5/5=2,38=5/2;
 8/6=1,10=2,108=200/1;
 9/40=5,41=200,42=1,70=2/14;
 6/7=2,8=2,9=2,10=2/1;
 99/5=1,9=1/99;
 Leave Link    1 at Thu Aug  7 19:07:20 2025, MaxMem=  1048576000 cpu:               0.0 elap:               0.0
 (Enter /projects/academic/jochena/software/easybuild/2023.01/software/Core/gaussian/16.C.02-AVX2/g16/l101.exe)
 ---------------------
 Pyraz_cd_300_full_ext
 ---------------------
 Structure from the checkpoint file:  "/projects/academic/jochena/akramer9/Favereau_MCD_Collab/MCD_Tests/Pyraz_cd_200_full_ext.chk"
 Charge =  0 Multiplicity = 1
 Redundant internal coordinates found in file.  (old form).
 C,0,2.3027359991,3.2670046817,0.
 N,0,3.0407980238,2.1555773029,0.
 C,0,2.3736908902,1.0001645518,0.
 C,0,0.9022968092,3.2231054414,0.
 C,0,0.9732479595,0.9563923768,0.
 N,0,0.2349975184,2.0677511219,0.
 H,0,2.8358971428,4.2263379648,0.
 H,0,2.9658065412,0.0760540894,0.
 H,0,0.441162817,-0.0029236039,0.
 H,0,0.3112562987,4.1472660734,0.
 Recover connectivity data from disk.
 ITRead=  0  0  0  0  0  0  0  0  0  0
 MicOpt= -1 -1 -1 -1 -1 -1 -1 -1 -1 -1
                           ----------------------------
                           !    Current Parameters    !
                           ! (Angstroms and Degrees)  !
 --------------------------                            --------------------------
 ! Name  Definition              Value                                          !
 --------------------------------------------------------------------------------
 ! R1    R(1,2)                  1.3342                                         !
 ! R2    R(1,4)                  1.4011                                         !
 ! R3    R(1,7)                  1.0975                                         !
 ! R4    R(2,3)                  1.3342                                         !
 ! R5    R(3,5)                  1.4011                                         !
 ! R6    R(3,8)                  1.0975                                         !
 ! R7    R(4,6)                  1.3342                                         !
 ! R8    R(4,10)                 1.097                                          !
 ! R9    R(5,6)                  1.3342                                         !
 ! R10   R(5,9)                  1.097                                          !
 ! A1    A(2,1,4)              121.7914                                         !
 ! A2    A(2,1,7)              117.3495                                         !
 ! A3    A(4,1,7)              120.8591                                         !
 ! A4    A(1,2,3)              116.4121                                         !
 ! A5    A(2,3,5)              121.7913                                         !
 ! A6    A(2,3,8)              117.3496                                         !
 ! A7    A(5,3,8)              120.8591                                         !
 ! A8    A(1,4,6)              121.8049                                         !
 ! A9    A(1,4,10)             120.8052                                         !
 ! A10   A(6,4,10)             117.3898                                         !
 ! A11   A(3,5,6)              121.8049                                         !
 ! A12   A(3,5,9)              120.8052                                         !
 ! A13   A(6,5,9)              117.3898                                         !
 ! A14   A(4,6,5)              116.3953                                         !
 ! D1    D(4,1,2,3)              0.0                                            !
 ! D2    D(7,1,2,3)            180.0                                            !
 ! D3    D(2,1,4,6)              0.0                                            !
 ! D4    D(2,1,4,10)           180.0                                            !
 ! D5    D(7,1,4,6)            180.0                                            !
 ! D6    D(7,1,4,10)             0.0                                            !
 ! D7    D(1,2,3,5)              0.0                                            !
 ! D8    D(1,2,3,8)            180.0                                            !
 ! D9    D(2,3,5,6)              0.0                                            !
 ! D10   D(2,3,5,9)            180.0                                            !
 ! D11   D(8,3,5,6)            180.0                                            !
 ! D12   D(8,3,5,9)              0.0                                            !
 ! D13   D(1,4,6,5)              0.0                                            !
 ! D14   D(10,4,6,5)           180.0                                            !
 ! D15   D(3,5,6,4)              0.0                                            !
 ! D16   D(9,5,6,4)            180.0                                            !
 --------------------------------------------------------------------------------
 NAtoms=     10 NQM=       10 NQMF=       0 NMMI=      0 NMMIF=      0
                NMic=       0 NMicF=      0.
                    Isotopes and Nuclear Properties:
 (Nuclear quadrupole moments (NQMom) in fm**2, nuclear magnetic moments (NMagM)
  in nuclear magnetons)

  Atom         1           2           3           4           5           6           7           8           9          10
 IAtWgt=          12          14          12          12          12          14           1           1           1           1
 AtmWgt=  12.0000000  14.0030740  12.0000000  12.0000000  12.0000000  14.0030740   1.0078250   1.0078250   1.0078250   1.0078250
 NucSpn=           0           2           0           0           0           2           1           1           1           1
 AtZEff=   3.6000000   4.5500000   3.6000000   3.6000000   3.6000000   4.5500000   1.0000000   1.0000000   1.0000000   1.0000000
 NQMom=    0.0000000   2.0440000   0.0000000   0.0000000   0.0000000   2.0440000   0.0000000   0.0000000   0.0000000   0.0000000
 NMagM=    0.0000000   0.4037610   0.0000000   0.0000000   0.0000000   0.4037610   2.7928460   2.7928460   2.7928460   2.7928460
 AtZNuc=   6.0000000   7.0000000   6.0000000   6.0000000   6.0000000   7.0000000   1.0000000   1.0000000   1.0000000   1.0000000
 Leave Link  101 at Thu Aug  7 19:07:20 2025, MaxMem=  1048576000 cpu:               0.4 elap:               0.4
 (Enter /projects/academic/jochena/software/easybuild/2023.01/software/Core/gaussian/16.C.02-AVX2/g16/l202.exe)
                          Input orientation:                          
 ---------------------------------------------------------------------
 Center     Atomic      Atomic             Coordinates (Angstroms)
 Number     Number       Type             X           Y           Z
 ---------------------------------------------------------------------
      1          6           0        2.302736    3.267005    0.000000
      2          7           0        3.040798    2.155577    0.000000
      3          6           0        2.373691    1.000165   -0.000000
      4          6           0        0.902297    3.223105    0.000000
      5          6           0        0.973248    0.956392   -0.000000
      6          7           0        0.234998    2.067751   -0.000000
      7          1           0        2.835897    4.226338    0.000000
      8          1           0        2.965807    0.076054   -0.000000
      9          1           0        0.441163   -0.002924   -0.000000
     10          1           0        0.311256    4.147266    0.000000
 ---------------------------------------------------------------------
                    Distance matrix (angstroms):
                    1          2          3          4          5
     1  C    0.000000
     2  N    1.334169   0.000000
     3  C    2.267950   1.334170   0.000000
     4  C    1.401127   2.390147   2.665796   0.000000
     5  C    2.665796   2.390148   1.401127   2.267823   0.000000
     6  N    2.390345   2.807175   2.390345   1.334216   1.334216
     7  H    1.097534   2.080873   3.259115   2.178368   3.763244
     8  H    3.259115   2.080875   1.097534   3.763244   2.178368
     9  H    3.762697   3.378939   2.177349   3.258820   1.096997
    10  H    2.177350   3.378938   3.762696   1.096997   3.258820
                    6          7          8          9         10
     6  N    0.000000
     7  H    3.379967   0.000000
     8  H    3.379967   4.152317   0.000000
     9  H    2.080913   4.860186   2.525879   0.000000
    10  H    2.080913   2.525879   4.860186   4.152222   0.000000
 Stoichiometry    C4H4N2
 Framework group  CS[SG(C4H4N2)]
 Deg. of freedom    17
 Full point group                 CS      NOp   2
 RotChk:  IX=1 Diff= 1.08D-15
 Largest Abelian subgroup         CS      NOp   2
 Largest concise Abelian subgroup C1      NOp   1
                         Standard orientation:                         
 ---------------------------------------------------------------------
 Center     Atomic      Atomic             Coordinates (Angstroms)
 Number     Number       Type             X           Y           Z
 ---------------------------------------------------------------------
      1          6           0        1.192003   -0.596481    0.000000
      2          7           0        1.193966    0.737686    0.000000
      3          6           0       -0.000067    1.332915    0.000000
      4          6           0       -0.000000   -1.332881   -0.000000
      5          6           0       -1.192003    0.596407   -0.000000
      6          7           0       -1.194161   -0.737808   -0.000000
      7          1           0        2.166113   -1.102141    0.000000
      8          1           0       -0.016409    2.430327    0.000000
      9          1           0       -2.165206    1.102646   -0.000000
     10          1           0        0.017267   -2.429742   -0.000000
 ---------------------------------------------------------------------
 Rotational constants (GHZ):           6.3894398           5.9343538           3.0767471
 Leave Link  202 at Thu Aug  7 19:07:20 2025, MaxMem=  1048576000 cpu:               0.0 elap:               0.0
 (Enter /projects/academic/jochena/software/easybuild/2023.01/software/Core/gaussian/16.C.02-AVX2/g16/l301.exe)
 Standard basis: 6-311++G(d,p) (5D, 7F)
 Ernie: Thresh=  0.10000D-02 Tol=  0.10000D-05 Strict=F.
 AO basis set in the form of general basis input (Overlap normalization):
      1 0
 S   6 1.00       0.000000000000
      0.4563240000D+04  0.1966650249D-02
      0.6820240000D+03  0.1523060193D-01
      0.1549730000D+03  0.7612690966D-01
      0.4445530000D+02  0.2608010331D+00
      0.1302900000D+02  0.6164620782D+00
      0.1827730000D+01  0.2210060280D+00
 SP   3 1.00       0.000000000000
      0.2096420000D+02  0.1146600807D+00  0.4024869267D-01
      0.4803310000D+01  0.9199996477D+00  0.2375939567D+00
      0.1459330000D+01 -0.3030682134D-02  0.8158538515D+00
 SP   1 1.00       0.000000000000
      0.4834560000D+00  0.1000000000D+01  0.1000000000D+01
 SP   1 1.00       0.000000000000
      0.1455850000D+00  0.1000000000D+01  0.1000000000D+01
 SP   1 1.00       0.000000000000
      0.4380000000D-01  0.1000000000D+01  0.1000000000D+01
 D   1 1.00       0.000000000000
      0.6260000000D+00  0.1000000000D+01
 ****
      2 0
 S   6 1.00       0.000000000000
      0.6293480000D+04  0.1969788147D-02
      0.9490440000D+03  0.1496128592D-01
      0.2187760000D+03  0.7350053084D-01
      0.6369160000D+02  0.2489367658D+00
      0.1882820000D+02  0.6024594331D+00
      0.2720230000D+01  0.2562017589D+00
 SP   3 1.00       0.000000000000
      0.3063310000D+02  0.1119060795D+00  0.3831191864D-01
      0.7026140000D+01  0.9216666549D+00  0.2374031155D+00
      0.2112050000D+01 -0.2569191826D-02  0.8175923978D+00
 SP   1 1.00       0.000000000000
      0.6840090000D+00  0.1000000000D+01  0.1000000000D+01
 SP   1 1.00       0.000000000000
      0.2008780000D+00  0.1000000000D+01  0.1000000000D+01
 SP   1 1.00       0.000000000000
      0.6390000000D-01  0.1000000000D+01  0.1000000000D+01
 D   1 1.00       0.000000000000
      0.9130000000D+00  0.1000000000D+01
 ****
      3 0
 S   6 1.00       0.000000000000
      0.4563240000D+04  0.1966650249D-02
      0.6820240000D+03  0.1523060193D-01
      0.1549730000D+03  0.7612690966D-01
      0.4445530000D+02  0.2608010331D+00
      0.1302900000D+02  0.6164620782D+00
      0.1827730000D+01  0.2210060280D+00
 SP   3 1.00       0.000000000000
      0.2096420000D+02  0.1146600807D+00  0.4024869267D-01
      0.4803310000D+01  0.9199996477D+00  0.2375939567D+00
      0.1459330000D+01 -0.3030682134D-02  0.8158538515D+00
 SP   1 1.00       0.000000000000
      0.4834560000D+00  0.1000000000D+01  0.1000000000D+01
 SP   1 1.00       0.000000000000
      0.1455850000D+00  0.1000000000D+01  0.1000000000D+01
 SP   1 1.00       0.000000000000
      0.4380000000D-01  0.1000000000D+01  0.1000000000D+01
 D   1 1.00       0.000000000000
      0.6260000000D+00  0.1000000000D+01
 ****
      4 0
 S   6 1.00       0.000000000000
      0.4563240000D+04  0.1966650249D-02
      0.6820240000D+03  0.1523060193D-01
      0.1549730000D+03  0.7612690966D-01
      0.4445530000D+02  0.2608010331D+00
      0.1302900000D+02  0.6164620782D+00
      0.1827730000D+01  0.2210060280D+00
 SP   3 1.00       0.000000000000
      0.2096420000D+02  0.1146600807D+00  0.4024869267D-01
      0.4803310000D+01  0.9199996477D+00  0.2375939567D+00
      0.1459330000D+01 -0.3030682134D-02  0.8158538515D+00
 SP   1 1.00       0.000000000000
      0.4834560000D+00  0.1000000000D+01  0.1000000000D+01
 SP   1 1.00       0.000000000000
      0.1455850000D+00  0.1000000000D+01  0.1000000000D+01
 SP   1 1.00       0.000000000000
      0.4380000000D-01  0.1000000000D+01  0.1000000000D+01
 D   1 1.00       0.000000000000
      0.6260000000D+00  0.1000000000D+01
 ****
      5 0
 S   6 1.00       0.000000000000
      0.4563240000D+04  0.1966650249D-02
      0.6820240000D+03  0.1523060193D-01
      0.1549730000D+03  0.7612690966D-01
      0.4445530000D+02  0.2608010331D+00
      0.1302900000D+02  0.6164620782D+00
      0.1827730000D+01  0.2210060280D+00
 SP   3 1.00       0.000000000000
      0.2096420000D+02  0.1146600807D+00  0.4024869267D-01
      0.4803310000D+01  0.9199996477D+00  0.2375939567D+00
      0.1459330000D+01 -0.3030682134D-02  0.8158538515D+00
 SP   1 1.00       0.000000000000
      0.4834560000D+00  0.1000000000D+01  0.1000000000D+01
 SP   1 1.00       0.000000000000
      0.1455850000D+00  0.1000000000D+01  0.1000000000D+01
 SP   1 1.00       0.000000000000
      0.4380000000D-01  0.1000000000D+01  0.1000000000D+01
 D   1 1.00       0.000000000000
      0.6260000000D+00  0.1000000000D+01
 ****
      6 0
 S   6 1.00       0.000000000000
      0.6293480000D+04  0.1969788147D-02
      0.9490440000D+03  0.1496128592D-01
      0.2187760000D+03  0.7350053084D-01
      0.6369160000D+02  0.2489367658D+00
      0.1882820000D+02  0.6024594331D+00
      0.2720230000D+01  0.2562017589D+00
 SP   3 1.00       0.000000000000
      0.3063310000D+02  0.1119060795D+00  0.3831191864D-01
      0.7026140000D+01  0.9216666549D+00  0.2374031155D+00
      0.2112050000D+01 -0.2569191826D-02  0.8175923978D+00
 SP   1 1.00       0.000000000000
      0.6840090000D+00  0.1000000000D+01  0.1000000000D+01
 SP   1 1.00       0.000000000000
      0.2008780000D+00  0.1000000000D+01  0.1000000000D+01
 SP   1 1.00       0.000000000000
      0.6390000000D-01  0.1000000000D+01  0.1000000000D+01
 D   1 1.00       0.000000000000
      0.9130000000D+00  0.1000000000D+01
 ****
      7 0
 S   3 1.00       0.000000000000
      0.3386500000D+02  0.2549381454D-01
      0.5094790000D+01  0.1903731086D+00
      0.1158790000D+01  0.8521614860D+00
 S   1 1.00       0.000000000000
      0.3258400000D+00  0.1000000000D+01
 S   1 1.00       0.000000000000
      0.1027410000D+00  0.1000000000D+01
 S   1 1.00       0.000000000000
      0.3600000000D-01  0.1000000000D+01
 P   1 1.00       0.000000000000
      0.7500000000D+00  0.1000000000D+01
 ****
      8 0
 S   3 1.00       0.000000000000
      0.3386500000D+02  0.2549381454D-01
      0.5094790000D+01  0.1903731086D+00
      0.1158790000D+01  0.8521614860D+00
 S   1 1.00       0.000000000000
      0.3258400000D+00  0.1000000000D+01
 S   1 1.00       0.000000000000
      0.1027410000D+00  0.1000000000D+01
 S   1 1.00       0.000000000000
      0.3600000000D-01  0.1000000000D+01
 P   1 1.00       0.000000000000
      0.7500000000D+00  0.1000000000D+01
 ****
      9 0
 S   3 1.00       0.000000000000
      0.3386500000D+02  0.2549381454D-01
      0.5094790000D+01  0.1903731086D+00
      0.1158790000D+01  0.8521614860D+00
 S   1 1.00       0.000000000000
      0.3258400000D+00  0.1000000000D+01
 S   1 1.00       0.000000000000
      0.1027410000D+00  0.1000000000D+01
 S   1 1.00       0.000000000000
      0.3600000000D-01  0.1000000000D+01
 P   1 1.00       0.000000000000
      0.7500000000D+00  0.1000000000D+01
 ****
     10 0
 S   3 1.00       0.000000000000
      0.3386500000D+02  0.2549381454D-01
      0.5094790000D+01  0.1903731086D+00
      0.1158790000D+01  0.8521614860D+00
 S   1 1.00       0.000000000000
      0.3258400000D+00  0.1000000000D+01
 S   1 1.00       0.000000000000
      0.1027410000D+00  0.1000000000D+01
 S   1 1.00       0.000000000000
      0.3600000000D-01  0.1000000000D+01
 P   1 1.00       0.000000000000
      0.7500000000D+00  0.1000000000D+01
 ****

 There are   126 symmetry adapted cartesian basis functions of A'  symmetry.
 There are    40 symmetry adapted cartesian basis functions of A"  symmetry.
 There are   120 symmetry adapted basis functions of A'  symmetry.
 There are    40 symmetry adapted basis functions of A"  symmetry.
   160 basis functions,   252 primitive gaussians,   166 cartesian basis functions
    21 alpha electrons       21 beta electrons
       nuclear repulsion energy       208.4240052726 Hartrees.
 IExCor=  402 DFT=T Ex+Corr=B3LYP ExCW=0 ScaHFX=  0.200000
 ScaDFX=  0.800000  0.720000  1.000000  0.810000 ScalE2=  1.000000  1.000000
 IRadAn=      5 IRanWt=     -1 IRanGd=            0 ICorTp=0 IEmpDi=  4
 NAtoms=   10 NActive=   10 NUniq=   10 SFac= 1.00D+00 NAtFMM=   60 NAOKFM=F Big=F
 Integral buffers will be    131072 words long.
 Regular integral format.
 Two-electron integral symmetry is turned on.
 Leave Link  301 at Thu Aug  7 19:07:20 2025, MaxMem=  1048576000 cpu:               0.1 elap:               0.0
 (Enter /projects/academic/jochena/software/easybuild/2023.01/software/Core/gaussian/16.C.02-AVX2/g16/l302.exe)
 NPDir=0 NMtPBC=     1 NCelOv=     1 NCel=       1 NClECP=     1 NCelD=      1
         NCelK=      1 NCelE2=     1 NClLst=     1 CellRange=     0.0.
 One-electron integrals computed using PRISM.
 One-electron integral symmetry used in STVInt
 NBasis=   160 RedAO= T EigKep=  1.92D-05  NBF=   120    40
 NBsUse=   160 1.00D-06 EigRej= -1.00D+00 NBFU=   120    40
 Precomputing XC quadrature grid using
 IXCGrd= 4 IRadAn=           5 IRanWt=          -1 IRanGd=           0 AccXCQ= 0.00D+00.
 Generated NRdTot=       0 NPtTot=           0 NUsed=           0 NTot=          32
 NSgBfM=   166   166   166   166   166 MxSgAt=    10 MxSgA2=    10.
 Leave Link  302 at Thu Aug  7 19:07:20 2025, MaxMem=  1048576000 cpu:               0.4 elap:               0.2
 (Enter /projects/academic/jochena/software/easybuild/2023.01/software/Core/gaussian/16.C.02-AVX2/g16/l303.exe)
 DipDrv:  MaxL=1.
 Leave Link  303 at Thu Aug  7 19:07:20 2025, MaxMem=  1048576000 cpu:               0.1 elap:               0.0
 (Enter /projects/academic/jochena/software/easybuild/2023.01/software/Core/gaussian/16.C.02-AVX2/g16/l308.exe)
 Leave Link  308 at Thu Aug  7 19:07:20 2025, MaxMem=  1048576000 cpu:               0.1 elap:               0.1
 (Enter /projects/academic/jochena/software/easybuild/2023.01/software/Core/gaussian/16.C.02-AVX2/g16/l401.exe)
 ExpMin= 3.60D-02 ExpMax= 6.29D+03 ExpMxC= 9.49D+02 IAcc=3 IRadAn=         5 AccDes= 0.00D+00
 Harris functional with IExCor=  402 and IRadAn=       5 diagonalized for initial guess.
 HarFok:  IExCor=  402 AccDes= 0.00D+00 IRadAn=         5 IDoV= 1 UseB2=F ITyADJ=14
 ICtDFT=  3500011 ScaDFX=  1.000000  1.000000  1.000000  1.000000
 FoFCou: FMM=F IPFlag=           0 FMFlag=      100000 FMFlg1=           0
         NFxFlg=           0 DoJE=T BraDBF=F KetDBF=T FulRan=T
         wScrn=  0.000000 ICntrl=       500 IOpCl=  0 I1Cent=   200000004 NGrid=           0
         NMat0=    1 NMatS0=      1 NMatT0=    0 NMatD0=    1 NMtDS0=    0 NMtDT0=    0
 Petite list used in FoFCou.
 Harris En= -264.358472885448    
 JPrj=0 DoOrth=F DoCkMO=F.
 Initial guess orbital symmetries:
       Occupied  (A') (A') (A') (A') (A') (A') (A') (A') (A') (A')
                 (A') (A') (A') (A') (A') (A") (A') (A") (A') (A")
                 (A')
       Virtual   (A") (A") (A') (A') (A") (A') (A') (A') (A") (A')
                 (A") (A') (A") (A') (A') (A') (A') (A') (A') (A")
                 (A') (A') (A') (A') (A") (A') (A') (A') (A') (A')
                 (A") (A') (A') (A') (A') (A') (A') (A') (A') (A')
                 (A') (A') (A') (A") (A') (A") (A') (A") (A") (A')
                 (A') (A') (A') (A') (A') (A') (A') (A") (A') (A')
                 (A") (A') (A') (A") (A') (A') (A') (A") (A") (A')
                 (A') (A") (A") (A") (A') (A') (A') (A') (A') (A')
                 (A') (A") (A") (A') (A") (A") (A') (A') (A') (A')
                 (A") (A') (A') (A") (A') (A') (A") (A') (A") (A')
                 (A') (A") (A') (A') (A") (A') (A") (A') (A') (A')
                 (A") (A') (A") (A') (A") (A') (A') (A') (A') (A')
                 (A') (A') (A') (A') (A') (A") (A") (A') (A') (A')
                 (A') (A') (A') (A') (A') (A') (A') (A') (A')
 The electronic state of the initial guess is 1-A'.
 Leave Link  401 at Thu Aug  7 19:07:21 2025, MaxMem=  1048576000 cpu:               1.1 elap:               0.3
 (Enter /projects/academic/jochena/software/easybuild/2023.01/software/Core/gaussian/16.C.02-AVX2/g16/l502.exe)
 Keep R1 ints in memory in symmetry-blocked form, NReq=127152809.
 FoFCou: FMM=F IPFlag=           0 FMFlag=           0 FMFlg1=           0
         NFxFlg=           0 DoJE=F BraDBF=F KetDBF=F FulRan=T
         wScrn=  0.000000 ICntrl=       600 IOpCl=  0 I1Cent=           0 NGrid=           0
         NMat0=    1 NMatS0=  12880 NMatT0=    0 NMatD0=    1 NMtDS0=    0 NMtDT0=    0
 Petite list used in FoFCou.
 Closed shell SCF:
 Using DIIS extrapolation, IDIIS=  1040.
 NGot=  1048576000 LenX=  1004320128 LenY=  1004292131
 Requested convergence on RMS density matrix=1.00D-08 within 128 cycles.
 Requested convergence on MAX density matrix=1.00D-06.
 Requested convergence on             energy=1.00D-06.
 No special actions if energy rises.

 Cycle   1  Pass 1  IDiag  1:
 E= -264.305574252998    
 DIIS: error= 3.89D-02 at cycle   1 NSaved=   1.
 NSaved= 1 IEnMin= 1 EnMin= -264.305574252998     IErMin= 1 ErrMin= 3.89D-02
 ErrMax= 3.89D-02  0.00D+00 EMaxC= 1.00D-01 BMatC= 9.67D-02 BMatP= 9.67D-02
 IDIUse=3 WtCom= 6.11D-01 WtEn= 3.89D-01
 Coeff-Com:  0.100D+01
 Coeff-En:   0.100D+01
 Coeff:      0.100D+01
 Gap=     0.184 Goal=   None    Shift=    0.000
 GapD=    0.184 DampG=1.000 DampE=0.500 DampFc=0.5000 IDamp=-1.
 Damping current iteration by 5.00D-01
 RMSDP=5.97D-03 MaxDP=1.23D-01              OVMax= 1.23D-01

 Cycle   2  Pass 1  IDiag  1:
 E= -264.344201647196     Delta-E=       -0.038627394198 Rises=F Damp=T
 DIIS: error= 7.77D-03 at cycle   2 NSaved=   2.
 NSaved= 2 IEnMin= 2 EnMin= -264.344201647196     IErMin= 2 ErrMin= 7.77D-03
 ErrMax= 7.77D-03  0.00D+00 EMaxC= 1.00D-01 BMatC= 8.24D-03 BMatP= 9.67D-02
 IDIUse=3 WtCom= 9.22D-01 WtEn= 7.77D-02
 Coeff-Com: -0.807D-01 0.108D+01
 Coeff-En:   0.000D+00 0.100D+01
 Coeff:     -0.744D-01 0.107D+01
 Gap=     0.199 Goal=   None    Shift=    0.000
 RMSDP=1.67D-03 MaxDP=2.79D-02 DE=-3.86D-02 OVMax= 8.11D-02

 Cycle   3  Pass 1  IDiag  1:
 E= -264.381251450474     Delta-E=       -0.037049803278 Rises=F Damp=F
 DIIS: error= 1.06D-02 at cycle   3 NSaved=   3.
 NSaved= 3 IEnMin= 3 EnMin= -264.381251450474     IErMin= 2 ErrMin= 7.77D-03
 ErrMax= 1.06D-02  0.00D+00 EMaxC= 1.00D-01 BMatC= 6.69D-03 BMatP= 8.24D-03
 IDIUse=3 WtCom= 8.94D-01 WtEn= 1.06D-01
 Coeff-Com: -0.130D+00 0.554D+00 0.576D+00
 Coeff-En:   0.000D+00 0.000D+00 0.100D+01
 Coeff:     -0.116D+00 0.495D+00 0.621D+00
 Gap=     0.193 Goal=   None    Shift=    0.000
 RMSDP=5.83D-04 MaxDP=1.11D-02 DE=-3.70D-02 OVMax= 3.32D-02

 Cycle   4  Pass 1  IDiag  1:
 E= -264.385666039356     Delta-E=       -0.004414588882 Rises=F Damp=F
 DIIS: error= 4.33D-03 at cycle   4 NSaved=   4.
 NSaved= 4 IEnMin= 4 EnMin= -264.385666039356     IErMin= 4 ErrMin= 4.33D-03
 ErrMax= 4.33D-03  0.00D+00 EMaxC= 1.00D-01 BMatC= 1.53D-03 BMatP= 6.69D-03
 IDIUse=3 WtCom= 9.57D-01 WtEn= 4.33D-02
 Coeff-Com: -0.612D-01 0.193D+00 0.374D+00 0.494D+00
 Coeff-En:   0.000D+00 0.000D+00 0.177D+00 0.823D+00
 Coeff:     -0.586D-01 0.185D+00 0.366D+00 0.508D+00
 Gap=     0.194 Goal=   None    Shift=    0.000
 RMSDP=3.18D-04 MaxDP=6.21D-03 DE=-4.41D-03 OVMax= 1.23D-02

 Cycle   5  Pass 1  IDiag  1:
 E= -264.386909080599     Delta-E=       -0.001243041242 Rises=F Damp=F
 DIIS: error= 8.42D-04 at cycle   5 NSaved=   5.
 NSaved= 5 IEnMin= 5 EnMin= -264.386909080599     IErMin= 5 ErrMin= 8.42D-04
 ErrMax= 8.42D-04  0.00D+00 EMaxC= 1.00D-01 BMatC= 4.30D-05 BMatP= 1.53D-03
 IDIUse=3 WtCom= 9.92D-01 WtEn= 8.42D-03
 Coeff-Com: -0.142D-01 0.283D-01 0.960D-01 0.217D+00 0.673D+00
 Coeff-En:   0.000D+00 0.000D+00 0.000D+00 0.000D+00 0.100D+01
 Coeff:     -0.141D-01 0.281D-01 0.952D-01 0.215D+00 0.676D+00
 Gap=     0.194 Goal=   None    Shift=    0.000
 RMSDP=1.13D-04 MaxDP=2.69D-03 DE=-1.24D-03 OVMax= 1.48D-03

 Cycle   6  Pass 1  IDiag  1:
 E= -264.386943024936     Delta-E=       -0.000033944338 Rises=F Damp=F
 DIIS: error= 1.92D-05 at cycle   6 NSaved=   6.
 NSaved= 6 IEnMin= 6 EnMin= -264.386943024936     IErMin= 6 ErrMin= 1.92D-05
 ErrMax= 1.92D-05  0.00D+00 EMaxC= 1.00D-01 BMatC= 3.02D-08 BMatP= 4.30D-05
 IDIUse=1 WtCom= 1.00D+00 WtEn= 0.00D+00
 Coeff-Com: -0.251D-03-0.183D-03 0.345D-02 0.896D-02 0.418D-01 0.946D+00
 Coeff:     -0.251D-03-0.183D-03 0.345D-02 0.896D-02 0.418D-01 0.946D+00
 Gap=     0.194 Goal=   None    Shift=    0.000
 RMSDP=3.48D-06 MaxDP=4.24D-05 DE=-3.39D-05 OVMax= 8.02D-05

 Cycle   7  Pass 1  IDiag  1:
 E= -264.386943053557     Delta-E=       -0.000000028621 Rises=F Damp=F
 DIIS: error= 1.10D-05 at cycle   7 NSaved=   7.
 NSaved= 7 IEnMin= 7 EnMin= -264.386943053557     IErMin= 7 ErrMin= 1.10D-05
 ErrMax= 1.10D-05  0.00D+00 EMaxC= 1.00D-01 BMatC= 4.98D-09 BMatP= 3.02D-08
 IDIUse=1 WtCom= 1.00D+00 WtEn= 0.00D+00
 Coeff-Com:  0.366D-04-0.297D-03 0.204D-03 0.867D-03 0.693D-02 0.316D+00
 Coeff-Com:  0.676D+00
 Coeff:      0.366D-04-0.297D-03 0.204D-03 0.867D-03 0.693D-02 0.316D+00
 Coeff:      0.676D+00
 Gap=     0.194 Goal=   None    Shift=    0.000
 RMSDP=9.24D-07 MaxDP=1.32D-05 DE=-2.86D-08 OVMax= 6.45D-05

 Cycle   8  Pass 1  IDiag  1:
 E= -264.386943052088     Delta-E=        0.000000001469 Rises=F Damp=F
 DIIS: error= 1.32D-05 at cycle   8 NSaved=   8.
 NSaved= 8 IEnMin= 7 EnMin= -264.386943053557     IErMin= 7 ErrMin= 1.10D-05
 ErrMax= 1.32D-05  0.00D+00 EMaxC= 1.00D-01 BMatC= 6.62D-09 BMatP= 4.98D-09
 IDIUse=1 WtCom= 1.00D+00 WtEn= 0.00D+00
 Coeff-Com:  0.747D-04-0.165D-03-0.591D-03-0.130D-02-0.401D-02 0.284D-01
 Coeff-Com:  0.535D+00 0.442D+00
 Coeff:      0.747D-04-0.165D-03-0.591D-03-0.130D-02-0.401D-02 0.284D-01
 Coeff:      0.535D+00 0.442D+00
 Gap=     0.194 Goal=   None    Shift=    0.000
 RMSDP=5.02D-07 MaxDP=7.26D-06 DE= 1.47D-09 OVMax= 3.61D-05

 Cycle   9  Pass 1  IDiag  1:
 E= -264.386943058622     Delta-E=       -0.000000006534 Rises=F Damp=F
 DIIS: error= 2.51D-07 at cycle   9 NSaved=   9.
 NSaved= 9 IEnMin= 9 EnMin= -264.386943058622     IErMin= 9 ErrMin= 2.51D-07
 ErrMax= 2.51D-07  0.00D+00 EMaxC= 1.00D-01 BMatC= 1.14D-11 BMatP= 4.98D-09
 IDIUse=1 WtCom= 1.00D+00 WtEn= 0.00D+00
 Coeff-Com:  0.104D-04-0.205D-04-0.964D-04-0.261D-03-0.774D-03-0.711D-04
 Coeff-Com:  0.855D-01 0.839D-01 0.832D+00
 Coeff:      0.104D-04-0.205D-04-0.964D-04-0.261D-03-0.774D-03-0.711D-04
 Coeff:      0.855D-01 0.839D-01 0.832D+00
 Gap=     0.194 Goal=   None    Shift=    0.000
 RMSDP=3.28D-08 MaxDP=6.13D-07 DE=-6.53D-09 OVMax= 1.87D-06

 Cycle  10  Pass 1  IDiag  1:
 E= -264.386943058628     Delta-E=       -0.000000000006 Rises=F Damp=F
 DIIS: error= 3.78D-07 at cycle  10 NSaved=  10.
 NSaved=10 IEnMin=10 EnMin= -264.386943058628     IErMin= 9 ErrMin= 2.51D-07
 ErrMax= 3.78D-07  0.00D+00 EMaxC= 1.00D-01 BMatC= 6.06D-12 BMatP= 1.14D-11
 IDIUse=1 WtCom= 1.00D+00 WtEn= 0.00D+00
 Coeff-Com:  0.224D-05-0.357D-05-0.256D-04-0.896D-04-0.247D-03-0.157D-02
 Coeff-Com:  0.210D-01 0.261D-01 0.490D+00 0.465D+00
 Coeff:      0.224D-05-0.357D-05-0.256D-04-0.896D-04-0.247D-03-0.157D-02
 Coeff:      0.210D-01 0.261D-01 0.490D+00 0.465D+00
 Gap=     0.194 Goal=   None    Shift=    0.000
 RMSDP=1.16D-08 MaxDP=2.91D-07 DE=-5.91D-12 OVMax= 1.32D-06

 Cycle  11  Pass 1  IDiag  1:
 E= -264.386943058634     Delta-E=       -0.000000000006 Rises=F Damp=F
 DIIS: error= 3.49D-08 at cycle  11 NSaved=  11.
 NSaved=11 IEnMin=11 EnMin= -264.386943058634     IErMin=11 ErrMin= 3.49D-08
 ErrMax= 3.49D-08  0.00D+00 EMaxC= 1.00D-01 BMatC= 7.82D-14 BMatP= 6.06D-12
 IDIUse=1 WtCom= 1.00D+00 WtEn= 0.00D+00
 Coeff-Com: -0.404D-06 0.103D-05 0.323D-05 0.161D-05 0.123D-04-0.553D-03
 Coeff-Com: -0.522D-02-0.387D-02 0.213D-01 0.103D+00 0.886D+00
 Coeff:     -0.404D-06 0.103D-05 0.323D-05 0.161D-05 0.123D-04-0.553D-03
 Coeff:     -0.522D-02-0.387D-02 0.213D-01 0.103D+00 0.886D+00
 Gap=     0.194 Goal=   None    Shift=    0.000
 RMSDP=3.27D-09 MaxDP=6.30D-08 DE=-5.57D-12 OVMax= 1.15D-07

 SCF Done:  E(RB3LYP) =  -264.386943059     A.U. after   11 cycles
            NFock= 11  Conv=0.33D-08     -V/T= 2.0044
 KE= 2.632172791835D+02 PE=-1.031813178724D+03 EE= 2.957849512097D+02
 Leave Link  502 at Thu Aug  7 19:07:27 2025, MaxMem=  1048576000 cpu:              20.5 elap:               5.8
 (Enter /projects/academic/jochena/software/easybuild/2023.01/software/Core/gaussian/16.C.02-AVX2/g16/l801.exe)
 DoSCS=F DFT=T ScalE2(SS,OS)=  1.000000  1.000000
 ExpMin= 3.60D-02 ExpMax= 6.29D+03 ExpMxC= 9.49D+02 IAcc=3 IRadAn=         5 AccDes= 0.00D+00
 HarFok:  IExCor=  205 AccDes= 0.00D+00 IRadAn=         5 IDoV=-2 UseB2=F ITyADJ=14
 ICtDFT= 12500011 ScaDFX=  1.000000  1.000000  1.000000  1.000000
 Largest valence mixing into a core orbital is  5.06D-05
 Largest core mixing into a valence orbital is  1.30D-05
 Range of M.O.s used for correlation:     7   160
 NBasis=   160 NAE=    21 NBE=    21 NFC=     6 NFV=     0
 NROrb=    154 NOA=    15 NOB=    15 NVA=   139 NVB=   139

 **** Warning!!: The largest alpha MO coefficient is  0.63840744D+02

 Leave Link  801 at Thu Aug  7 19:07:27 2025, MaxMem=  1048576000 cpu:               0.3 elap:               0.1
 (Enter /projects/academic/jochena/software/easybuild/2023.01/software/Core/gaussian/16.C.02-AVX2/g16/l914.exe)
 RHF ground state
 Keep R1, R2, and R3 ints in memory in symmetry-blocked form, NReq=598194530.
 FoFCou: FMM=F IPFlag=           0 FMFlag=           0 FMFlg1=           0
         NFxFlg=           0 DoJE=F BraDBF=F KetDBF=F FulRan=T
         wScrn=  0.000000 ICntrl=       600 IOpCl=  0 I1Cent=           0 NGrid=           0
         NMat0=    1 NMatS0=  12880 NMatT0=    0 NMatD0=    1 NMtDS0=    0 NMtDT0=    0
 Petite list used in FoFCou.
 MDV=  1048576000 DFT=T DoStab=F Mixed=T DoRPA=T DoScal=F NonHer=T
 Making orbital integer symmetry assigments:
 Orbital symmetries:
       Occupied  (A') (A') (A') (A') (A') (A') (A') (A') (A') (A')
                 (A') (A') (A') (A') (A') (A") (A') (A") (A') (A")
                 (A')
       Virtual   (A") (A") (A') (A') (A') (A') (A') (A") (A") (A')
                 (A") (A') (A') (A') (A') (A") (A') (A') (A') (A")
                 (A') (A') (A") (A') (A') (A') (A') (A') (A") (A')
                 (A') (A') (A') (A') (A') (A') (A') (A') (A') (A')
                 (A') (A') (A") (A') (A") (A') (A') (A") (A") (A')
                 (A') (A') (A') (A') (A') (A') (A') (A") (A') (A')
                 (A") (A') (A') (A') (A") (A') (A') (A") (A') (A")
                 (A') (A") (A") (A") (A') (A') (A') (A') (A') (A')
                 (A') (A") (A") (A') (A") (A") (A') (A') (A') (A')
                 (A") (A') (A') (A") (A') (A') (A") (A') (A") (A')
                 (A") (A') (A') (A') (A') (A") (A') (A') (A") (A')
                 (A") (A') (A") (A') (A") (A') (A') (A') (A') (A')
                 (A') (A') (A') (A') (A') (A") (A") (A') (A') (A')
                 (A') (A') (A') (A') (A') (A') (A') (A') (A')
   800 initial guesses have been made.
 Convergence on wavefunction:    0.001000000000000
 Davidson Disk Diagonalization:  ConvIn= 1.00D-03 SkipCon=T Conv= 1.00D-03.
 Max sub-space: 12000 roots to seek:   800 dimension of matrix:         4170
 Iteration     1 Dimension   800 NMult     0 NNew    800
 CISAX will form   800 AO SS matrices at one time.
 NMat=   800 NSing=   800 JSym2X=-1.
 New state      4 was old state      5
 New state      5 was old state      6
 New state      6 was old state      9
 New state      7 was old state      4
 New state      8 was old state      7
 New state      9 was old state     10
 New state     10 was old state     11
 New state     11 was old state     12
 New state     12 was old state     13
 New state     13 was old state     15
 New state     14 was old state     17
 New state     15 was old state     22
 New state     16 was old state      8
 New state     17 was old state     16
 New state     18 was old state     14
 New state     19 was old state     18
 New state     20 was old state     19
 New state     22 was old state     23
 New state     23 was old state     24
 New state     24 was old state     20
 New state     26 was old state     33
 New state     28 was old state     26
 New state     29 was old state     28
 New state     30 was old state     29
 New state     31 was old state     30
 New state     33 was old state     35
 New state     34 was old state     45
 New state     35 was old state     34
 New state     36 was old state     31
 New state     38 was old state     46
 New state     39 was old state     36
 New state     40 was old state     39
 New state     42 was old state     38
 New state     43 was old state     40
 New state     45 was old state     42
 New state     46 was old state     43
 New state     47 was old state     62
 New state     48 was old state     49
 New state     49 was old state     47
 New state     50 was old state     48
 New state     51 was old state     50
 New state     52 was old state     51
 New state     53 was old state     55
 New state     54 was old state     56
 New state     55 was old state     54
 New state     56 was old state     52
 New state     58 was old state     53
 New state     60 was old state     58
 New state     61 was old state     60
 New state     62 was old state     61
 New state     64 was old state     65
 New state     65 was old state     77
 New state     66 was old state     70
 New state     67 was old state     66
 New state     68 was old state     69
 New state     69 was old state     67
 New state     70 was old state     75
 New state     72 was old state     68
 New state     73 was old state     72
 New state     74 was old state     76
 New state     75 was old state     73
 New state     76 was old state     74
 New state     77 was old state     64
 New state     79 was old state    101
 New state     80 was old state     87
 New state     81 was old state     79
 New state     82 was old state     80
 New state     83 was old state     82
 New state     85 was old state     81
 New state     86 was old state     88
 New state     87 was old state     83
 New state     88 was old state     85
 New state     89 was old state     93
 New state     90 was old state     86
 New state     91 was old state    105
 New state     92 was old state     90
 New state     93 was old state    102
 New state     94 was old state     92
 New state     95 was old state     96
 New state     96 was old state     89
 New state     97 was old state     91
 New state     98 was old state     94
 New state     99 was old state    120
 New state    100 was old state     98
 New state    101 was old state     97
 New state    102 was old state    100
 New state    103 was old state     95
 New state    104 was old state    103
 New state    105 was old state     99
 New state    106 was old state    110
 New state    107 was old state    128
 New state    108 was old state    112
 New state    109 was old state    106
 New state    110 was old state    111
 New state    111 was old state    121
 New state    112 was old state    104
 New state    113 was old state    109
 New state    114 was old state    107
 New state    115 was old state    108
 New state    116 was old state    119
 New state    117 was old state    113
 New state    119 was old state    115
 New state    120 was old state    114
 New state    121 was old state    117
 New state    122 was old state    116
 New state    123 was old state    122
 New state    124 was old state    125
 New state    125 was old state    123
 New state    126 was old state    124
 New state    127 was old state    126
 New state    128 was old state    127
 New state    130 was old state    132
 New state    131 was old state    130
 New state    132 was old state    135
 New state    133 was old state    131
 New state    134 was old state    148
 New state    135 was old state    134
 New state    136 was old state    133
 New state    138 was old state    150
 New state    140 was old state    138
 New state    141 was old state    143
 New state    143 was old state    145
 New state    144 was old state    140
 New state    145 was old state    144
 New state    146 was old state    136
 New state    147 was old state    158
 New state    148 was old state    146
 New state    149 was old state    151
 New state    150 was old state    147
 New state    151 was old state    149
 New state    152 was old state    141
 New state    153 was old state    154
 New state    154 was old state    174
 New state    155 was old state    157
 New state    156 was old state    162
 New state    157 was old state    152
 New state    158 was old state    172
 New state    159 was old state    153
 New state    160 was old state    165
 New state    161 was old state    155
 New state    162 was old state    164
 New state    163 was old state    173
 New state    164 was old state    160
 New state    165 was old state    171
 New state    166 was old state    156
 New state    167 was old state    163
 New state    168 was old state    159
 New state    170 was old state    167
 New state    171 was old state    166
 New state    172 was old state    161
 New state    173 was old state    168
 New state    174 was old state    175
 New state    175 was old state    176
 New state    176 was old state    170
 New state    178 was old state    182
 New state    179 was old state    178
 New state    180 was old state    181
 New state    181 was old state    180
 New state    182 was old state    196
 New state    183 was old state    179
 New state    184 was old state    197
 New state    185 was old state    186
 New state    186 was old state    190
 New state    187 was old state    183
 New state    188 was old state    194
 New state    189 was old state    193
 New state    190 was old state    192
 New state    191 was old state    187
 New state    192 was old state    191
 New state    193 was old state    184
 New state    194 was old state    189
 New state    195 was old state    200
 New state    196 was old state    202
 New state    197 was old state    188
 New state    198 was old state    204
 New state    199 was old state    229
 New state    200 was old state    199
 Excitation Energies [eV] at current iteration:
 Root      1 :     3.961640085472426
 Root      2 :     4.554434136949704
 Root      3 :     5.422633937269642
 Root      4 :     5.635196439353371
 Root      5 :     6.170616157280599
 Root      6 :     6.321072703438672
 Root      7 :     6.552949644261639
 Root      8 :     6.567991047034669
 Root      9 :     6.865053844696638
 Root     10 :     6.975092856682210
 Root     11 :     7.258787338684742
 Root     12 :     7.357704282406562
 Root     13 :     7.503724554987594
 Root     14 :     7.693382185055283
 Root     15 :     7.694728965439111
 Root     16 :     7.717895107813157
 Root     17 :     7.764508986405591
 Root     18 :     7.764847057147186
 Root     19 :     7.979371965518925
 Root     20 :     8.122335178726461
 Root     21 :     8.160021086738043
 Root     22 :     8.191776159950393
 Root     23 :     8.229613521358203
 Root     24 :     8.275658705266482
 Root     25 :     8.410809833858055
 Root     26 :     8.465074147892803
 Root     27 :     8.532665385304712
 Root     28 :     8.580293273181615
 Root     29 :     8.729629532769843
 Root     30 :     8.818576409438712
 Root     31 :     8.900495439158615
 Root     32 :     8.924636594489376
 Root     33 :     8.962214662161754
 Root     34 :     9.014311082638399
 Root     35 :     9.041888747804478
 Root     36 :     9.136371404575234
 Root     37 :     9.201229832111714
 Root     38 :     9.203575312087642
 Root     39 :     9.260074250582660
 Root     40 :     9.273482774034200
 Root     41 :     9.420989324453092
 Root     42 :     9.424280530076054
 Root     43 :     9.507538375536065
 Root     44 :     9.617359228275378
 Root     45 :     9.618837009469713
 Root     46 :     9.642362033449080
 Root     47 :     9.644738332983900
 Root     48 :     9.702560132703928
 Root     49 :     9.731124118979347
 Root     50 :     9.792281491667744
 Root     51 :     9.793117649195896
 Root     52 :     9.828986847452605
 Root     53 :     9.867155404915088
 Root     54 :     9.869291929238850
 Root     55 :     9.944003680537962
 Root     56 :     9.990563198620707
 Root     57 :     9.994083486237081
 Root     58 :    10.078918714514181
 Root     59 :    10.158833551303632
 Root     60 :    10.160998547237389
 Root     61 :    10.202188501712078
 Root     62 :    10.285875221165650
 Root     63 :    10.381088902218131
 Root     64 :    10.429178038072655
 Root     65 :    10.448804746716423
 Root     66 :    10.489526808196960
 Root     67 :    10.534912370699839
 Root     68 :    10.546030537075092
 Root     69 :    10.639292219758214
 Root     70 :    10.713157987467099
 Root     71 :    10.730719448087420
 Root     72 :    10.784410633617632
 Root     73 :    10.784668497505407
 Root     74 :    10.823143714022731
 Root     75 :    10.867646282801772
 Root     76 :    10.875883623016241
 Root     77 :    10.933247347907525
 Root     78 :    10.982058425161389
 Root     79 :    10.983409927457510
 Root     80 :    11.055775182865515
 Root     81 :    11.121311666487653
 Root     82 :    11.186439139222761
 Root     83 :    11.237688381356826
 Root     84 :    11.256124880793815
 Root     85 :    11.260628305316706
 Root     86 :    11.261222607220949
 Root     87 :    11.270763917216899
 Root     88 :    11.298438044276946
 Root     89 :    11.304405351740010
 Root     90 :    11.379819579132784
 Root     91 :    11.440196171758590
 Root     92 :    11.441501317558865
 Root     93 :    11.450500089028502
 Root     94 :    11.508238321913382
 Root     95 :    11.545942120327741
 Root     96 :    11.561389945932724
 Root     97 :    11.697350031145573
 Root     98 :    11.725535731891737
 Root     99 :    11.735893488103750
 Root    100 :    11.751048251298160
 Root    101 :    11.756090758379178
 Root    102 :    11.757456448645744
 Root    103 :    11.779758907249866
 Root    104 :    11.818022804283965
 Root    105 :    11.856281756420499
 Root    106 :    11.958924717577450
 Root    107 :    12.051813122497741
 Root    108 :    12.072872612259243
 Root    109 :    12.081467975454038
 Root    110 :    12.092649156247548
 Root    111 :    12.147753346233578
 Root    112 :    12.158265743085222
 Root    113 :    12.173697241294617
 Root    114 :    12.190150890676088
 Root    115 :    12.227693959088725
 Root    116 :    12.294210809052903
 Root    117 :    12.304464702629271
 Root    118 :    12.318794394429712
 Root    119 :    12.328734380596320
 Root    120 :    12.333822122116212
 Root    121 :    12.383476206106938
 Root    122 :    12.475438837825747
 Root    123 :    12.499779471282581
 Root    124 :    12.536932902758677
 Root    125 :    12.537791984132102
 Root    126 :    12.647325072206689
 Root    127 :    12.650705590675372
 Root    128 :    12.726313383383671
 Root    129 :    12.758018651973291
 Root    130 :    12.770207044167520
 Root    131 :    12.820811638224093
 Root    132 :    12.841333166301226
 Root    133 :    12.870215345020430
 Root    134 :    13.020751378444835
 Root    135 :    13.044697176531130
 Root    136 :    13.055431884475970
 Root    137 :    13.090822257682467
 Root    138 :    13.118732613470101
 Root    139 :    13.136573942451157
 Root    140 :    13.322228577999407
 Root    141 :    13.336549432870928
 Root    142 :    13.338629221399843
 Root    143 :    13.341500918511333
 Root    144 :    13.357468673199758
 Root    145 :    13.370039839608053
 Root    146 :    13.382521656235561
 Root    147 :    13.430901236652455
 Root    148 :    13.440185549957434
 Root    149 :    13.482199942779470
 Root    150 :    13.501332682589263
 Root    151 :    13.507636339810224
 Root    152 :    13.538664757727183
 Root    153 :    13.579167125617090
 Root    154 :    13.613577988962174
 Root    155 :    13.616783409049093
 Root    156 :    13.650953989223193
 Root    157 :    13.697157819200674
 Root    158 :    13.717332795620418
 Root    159 :    13.720259023817718
 Root    160 :    13.754139964079556
 Root    161 :    13.778649228422765
 Root    162 :    13.795812682528364
 Root    163 :    13.839385164133517
 Root    164 :    13.844853563197683
 Root    165 :    13.885565840756831
 Root    166 :    13.891913463094463
 Root    167 :    13.893287987412865
 Root    168 :    13.899007144900452
 Root    169 :    13.946220808892743
 Root    170 :    13.961215744254512
 Root    171 :    13.973046576854079
 Root    172 :    13.974762730189358
 Root    173 :    14.008277395283516
 Root    174 :    14.032461794522497
 Root    175 :    14.114818690968702
 Root    176 :    14.137627765315555
 Root    177 :    14.147798824821551
 Root    178 :    14.230123394781762
 Root    179 :    14.278359662871415
 Root    180 :    14.318331744009528
 Root    181 :    14.325542401925903
 Root    182 :    14.337665627152029
 Root    183 :    14.377999063160011
 Root    184 :    14.433451624951228
 Root    185 :    14.440634100463718
 Root    186 :    14.487864496981588
 Root    187 :    14.501698760257272
 Root    188 :    14.514426363775160
 Root    189 :    14.530285457005530
 Root    190 :    14.564695022973602
 Root    191 :    14.586775768552174
 Root    192 :    14.613727184695009
 Root    193 :    14.646025743213837
 Root    194 :    14.662225169222246
 Root    195 :    14.664197762270357
 Root    196 :    14.683084043924056
 Root    197 :    14.685496272699446
 Root    198 :    14.692831592503827
 Root    199 :    14.698429327753159
 Root    200 :    14.740327391721063
 Root    201 :    14.784812380744329
 Root    202 :    14.790055729733897
 Root    203 :    14.792260159820838
 Root    204 :    14.827575195664084
 Root    205 :    14.847744039052600
 Root    206 :    14.878888046516055
 Root    207 :    14.900795634380286
 Root    208 :    14.903789118459153
 Root    209 :    14.930964385925829
 Root    210 :    14.936542371089439
 Root    211 :    14.946388706041651
 Root    212 :    14.971063229671914
 Root    213 :    14.977269933838837
 Root    214 :    14.978879761215161
 Root    215 :    15.018860741227673
 Root    216 :    15.037665465013523
 Root    217 :    15.133774562308236
 Root    218 :    15.148376763569660
 Root    219 :    15.194784144131251
 Root    220 :    15.199538802863881
 Root    221 :    15.232453975955565
 Root    222 :    15.259473835693267
 Root    223 :    15.327447993311642
 Root    224 :    15.340629384410542
 Root    225 :    15.345657671952273
 Root    226 :    15.367961238882851
 Root    227 :    15.387225492697642
 Root    228 :    15.389509114261466
 Root    229 :    15.423231789905998
 Root    230 :    15.444407205172254
 Root    231 :    15.448599526516952
 Root    232 :    15.482194386893770
 Root    233 :    15.569255401218948
 Root    234 :    15.576180184902631
 Root    235 :    15.604115644371976
 Root    236 :    15.633297773727740
 Root    237 :    15.682738304852371
 Root    238 :    15.707594540379398
 Root    239 :    15.748887035050632
 Root    240 :    15.749936507297367
 Root    241 :    15.819487872338444
 Root    242 :    15.864076317860484
 Root    243 :    15.916296489365202
 Root    244 :    15.924905714908679
 Root    245 :    15.942598989544654
 Root    246 :    15.955101922588705
 Root    247 :    15.965030750754890
 Root    248 :    15.978622826900304
 Root    249 :    15.993712965393600
 Root    250 :    16.018494723669207
 Root    251 :    16.035644708415553
 Root    252 :    16.138229074622966
 Root    253 :    16.163213270605276
 Root    254 :    16.197530157361825
 Root    255 :    16.202001598722561
 Root    256 :    16.252239444833439
 Root    257 :    16.352199846334148
 Root    258 :    16.356014475381258
 Root    259 :    16.369546049040249
 Root    260 :    16.369806044993865
 Root    261 :    16.401089771924998
 Root    262 :    16.466763181345200
 Root    263 :    16.467714116821359
 Root    264 :    16.509686039295843
 Root    265 :    16.513119990573664
 Root    266 :    16.519290674227321
 Root    267 :    16.521628076981376
 Root    268 :    16.536775365877272
 Root    269 :    16.581185845470838
 Root    270 :    16.598809603316557
 Root    271 :    16.614418327433018
 Root    272 :    16.616143896222948
 Root    273 :    16.657646367845839
 Root    274 :    16.679982489939803
 Root    275 :    16.728115529013728
 Root    276 :    16.780545030573609
 Root    277 :    16.793699740847089
 Root    278 :    16.840802560151008
 Root    279 :    16.892214860485588
 Root    280 :    16.921108906085408
 Root    281 :    16.967616041087631
 Root    282 :    16.968219122332940
 Root    283 :    17.022777648589138
 Root    284 :    17.066752456667466
 Root    285 :    17.084961277198797
 Root    286 :    17.127709815341451
 Root    287 :    17.168582048137932
 Root    288 :    17.181519768302696
 Root    289 :    17.188903486538138
 Root    290 :    17.234925528960812
 Root    291 :    17.263678444028987
 Root    292 :    17.325482855568065
 Root    293 :    17.337235867368630
 Root    294 :    17.346403113260855
 Root    295 :    17.362350786832280
 Root    296 :    17.411471252457797
 Root    297 :    17.427620102211147
 Root    298 :    17.487211179043708
 Root    299 :    17.528163519775518
 Root    300 :    17.552061750522125
 Root    301 :    17.562355459054825
 Root    302 :    17.578601618076000
 Root    303 :    17.602142434276828
 Root    304 :    17.642929549136202
 Root    305 :    17.656825620413301
 Root    306 :    17.676013702929758
 Root    307 :    17.680881445893998
 Root    308 :    17.720537909892229
 Root    309 :    17.721050526119623
 Root    310 :    17.725908468206562
 Root    311 :    17.820599390412443
 Root    312 :    17.825303399281211
 Root    313 :    17.903082615392446
 Root    314 :    17.942269221063796
 Root    315 :    17.953969536466087
 Root    316 :    17.960623187710745
 Root    317 :    17.997856708222727
 Root    318 :    18.026448165553095
 Root    319 :    18.029841337769103
 Root    320 :    18.086290712035868
 Root    321 :    18.139648767793538
 Root    322 :    18.143381719886484
 Root    323 :    18.154800533948141
 Root    324 :    18.199359049228718
 Root    325 :    18.210328143782220
 Root    326 :    18.221089272259345
 Root    327 :    18.257745587982104
 Root    328 :    18.327570190332931
 Root    329 :    18.368058097331129
 Root    330 :    18.487416805046223
 Root    331 :    18.507558878906917
 Root    332 :    18.540677828812061
 Root    333 :    18.556597666033099
 Root    334 :    18.574789864576353
 Root    335 :    18.575816798586239
 Root    336 :    18.651123220836173
 Root    337 :    18.651630103239839
 Root    338 :    18.690116109495751
 Root    339 :    18.767264561895541
 Root    340 :    18.800108820159966
 Root    341 :    18.837460077867615
 Root    342 :    18.841122969891178
 Root    343 :    18.875467357261062
 Root    344 :    18.896082830846296
 Root    345 :    18.903285521894681
 Root    346 :    19.024073397590080
 Root    347 :    19.039055855711414
 Root    348 :    19.089185397227940
 Root    349 :    19.118789742924999
 Root    350 :    19.136199524276144
 Root    351 :    19.139273913420741
 Root    352 :    19.147717073014434
 Root    353 :    19.174908650293894
 Root    354 :    19.267967814278602
 Root    355 :    19.293800765347232
 Root    356 :    19.359435813751126
 Root    357 :    19.366130988914659
 Root    358 :    19.369762839614612
 Root    359 :    19.431561311716461
 Root    360 :    19.482729118234587
 Root    361 :    19.501968800366836
 Root    362 :    19.512607757205334
 Root    363 :    19.569069744600913
 Root    364 :    19.603373356458189
 Root    365 :    19.634201483841291
 Root    366 :    19.646352339054346
 Root    367 :    19.703264543500289
 Root    368 :    19.736447222810718
 Root    369 :    19.749989781466699
 Root    370 :    19.801596065736209
 Root    371 :    19.818517460587401
 Root    372 :    19.868294197564595
 Root    373 :    19.888458546359175
 Root    374 :    19.914855603065078
 Root    375 :    19.957703848173445
 Root    376 :    19.964813234029965
 Root    377 :    20.083318024799965
 Root    378 :    20.090280447912193
 Root    379 :    20.164836253709161
 Root    380 :    20.169013716699983
 Root    381 :    20.173936405428595
 Root    382 :    20.207226776991714
 Root    383 :    20.225003423623225
 Root    384 :    20.246361427997634
 Root    385 :    20.257926209369579
 Root    386 :    20.317134588186601
 Root    387 :    20.347461009418815
 Root    388 :    20.359371935355476
 Root    389 :    20.361153804223488
 Root    390 :    20.400302341743448
 Root    391 :    20.406711019946776
 Root    392 :    20.431629655503485
 Root    393 :    20.467045869434138
 Root    394 :    20.480640808294382
 Root    395 :    20.518806138830566
 Root    396 :    20.535108963675505
 Root    397 :    20.544889961167499
 Root    398 :    20.599920565445903
 Root    399 :    20.610352508193923
 Root    400 :    20.616058099270393
 Root    401 :    20.616927700462860
 Root    402 :    20.642790426105936
 Root    403 :    20.688636204502199
 Root    404 :    20.722840720154874
 Root    405 :    20.763294489396820
 Root    406 :    20.777152523495737
 Root    407 :    20.814003828782354
 Root    408 :    20.847451160242549
 Root    409 :    20.848591567768260
 Root    410 :    20.870736417687269
 Root    411 :    20.900328468731011
 Root    412 :    20.906521519795525
 Root    413 :    20.922780000986954
 Root    414 :    21.009812143349031
 Root    415 :    21.032238084137688
 Root    416 :    21.039530687437328
 Root    417 :    21.119910256932602
 Root    418 :    21.133873277846341
 Root    419 :    21.166379895315981
 Root    420 :    21.168013132152094
 Root    421 :    21.180825158516292
 Root    422 :    21.181126396836824
 Root    423 :    21.187606490638803
 Root    424 :    21.202797638955762
 Root    425 :    21.218766714970485
 Root    426 :    21.244248863549235
 Root    427 :    21.251646018515274
 Root    428 :    21.269931051568694
 Root    429 :    21.301082789371463
 Root    430 :    21.337311847725925
 Root    431 :    21.376742093661957
 Root    432 :    21.391408651303394
 Root    433 :    21.413837553757091
 Root    434 :    21.432813968101634
 Root    435 :    21.445504711194264
 Root    436 :    21.456727197480188
 Root    437 :    21.533417763251240
 Root    438 :    21.558594668910686
 Root    439 :    21.613340228235330
 Root    440 :    21.636197315761617
 Root    441 :    21.649641879357539
 Root    442 :    21.695479760644140
 Root    443 :    21.707587058622877
 Root    444 :    21.762351845088965
 Root    445 :    21.811140886051152
 Root    446 :    21.828866372690900
 Root    447 :    21.927730414710194
 Root    448 :    21.940521554285013
 Root    449 :    21.984594712399989
 Root    450 :    21.984775212348996
 Root    451 :    22.003317880016976
 Root    452 :    22.059800426846472
 Root    453 :    22.065355342059341
 Root    454 :    22.081399589084121
 Root    455 :    22.090461708880621
 Root    456 :    22.126961387806293
 Root    457 :    22.236174976811448
 Root    458 :    22.283595783031284
 Root    459 :    22.353467545195766
 Root    460 :    22.383403054328475
 Root    461 :    22.425968113132349
 Root    462 :    22.469898135395564
 Root    463 :    22.551366939479514
 Root    464 :    22.555080875718343
 Root    465 :    22.560885357785871
 Root    466 :    22.616738660863984
 Root    467 :    22.630967644564343
 Root    468 :    22.666370277474520
 Root    469 :    22.734743888085788
 Root    470 :    22.747698922992811
 Root    471 :    22.759809477124822
 Root    472 :    22.783987354825246
 Root    473 :    22.812823610690977
 Root    474 :    22.928781853485816
 Root    475 :    22.945690276531245
 Root    476 :    22.946205357444050
 Root    477 :    22.947024204228391
 Root    478 :    23.002598613843791
 Root    479 :    23.072711525167893
 Root    480 :    23.079473282060235
 Root    481 :    23.170053069918506
 Root    482 :    23.194993572192370
 Root    483 :    23.294264398392261
 Root    484 :    23.361085247802603
 Root    485 :    23.378284250205631
 Root    486 :    23.380747163480372
 Root    487 :    23.395809311504852
 Root    488 :    23.586672882218707
 Root    489 :    23.597953666855567
 Root    490 :    23.599200146858561
 Root    491 :    23.615111205106494
 Root    492 :    23.668259659084477
 Root    493 :    23.674536802810497
 Root    494 :    23.682922244017409
 Root    495 :    23.773619049037499
 Root    496 :    23.796521941384874
 Root    497 :    23.866122630132253
 Root    498 :    23.882785527391071
 Root    499 :    23.910212491901216
 Root    500 :    23.923435823471852
 Root    501 :    23.926385080916269
 Root    502 :    23.956022098570607
 Root    503 :    23.964197793620034
 Root    504 :    24.033706152228156
 Root    505 :    24.050842224111502
 Root    506 :    24.130598058263047
 Root    507 :    24.149250171168045
 Root    508 :    24.165303969623185
 Root    509 :    24.167409105238409
 Root    510 :    24.199616261566653
 Root    511 :    24.222674400868968
 Root    512 :    24.230279606247080
 Root    513 :    24.252536764327562
 Root    514 :    24.279680477282248
 Root    515 :    24.304994387374471
 Root    516 :    24.313354752733584
 Root    517 :    24.371587705213248
 Root    518 :    24.449704573891825
 Root    519 :    24.456236481101218
 Root    520 :    24.484880275386608
 Root    521 :    24.498186935590596
 Root    522 :    24.527909301217214
 Root    523 :    24.564799521880413
 Root    524 :    24.579130333726347
 Root    525 :    24.592148620185789
 Root    526 :    24.654602909112629
 Root    527 :    24.676571303094519
 Root    528 :    24.730658137857045
 Root    529 :    24.750444058925876
 Root    530 :    24.752831721010185
 Root    531 :    24.796951025382217
 Root    532 :    24.857889651317333
 Root    533 :    24.875938099988407
 Root    534 :    24.881990171212934
 Root    535 :    24.882369350445487
 Root    536 :    24.902208082205583
 Root    537 :    24.926590707115938
 Root    538 :    25.003455577861903
 Root    539 :    25.018833167697430
 Root    540 :    25.052554106582175
 Root    541 :    25.076676409429997
 Root    542 :    25.229475347340337
 Root    543 :    25.293851632297152
 Root    544 :    25.321860157702421
 Root    545 :    25.364785334248541
 Root    546 :    25.425773858055507
 Root    547 :    25.432254684756579
 Root    548 :    25.508304875514654
 Root    549 :    25.552161357730515
 Root    550 :    25.555513616964294
 Root    551 :    25.605222180870111
 Root    552 :    25.628522882702416
 Root    553 :    25.631383083257614
 Root    554 :    25.677297589917259
 Root    555 :    25.681920014298058
 Root    556 :    25.733801036716532
 Root    557 :    25.735829378504377
 Root    558 :    25.753818167325008
 Root    559 :    25.759381208675428
 Root    560 :    25.823250927299419
 Root    561 :    25.905594734876733
 Root    562 :    25.913776672524541
 Root    563 :    25.929258589093084
 Root    564 :    25.976505587062938
 Root    565 :    26.048915101816089
 Root    566 :    26.065199817374026
 Root    567 :    26.066643639956578
 Root    568 :    26.093268428953493
 Root    569 :    26.192778903418834
 Root    570 :    26.204591237387081
 Root    571 :    26.246771740101270
 Root    572 :    26.276502675091759
 Root    573 :    26.306678864207186
 Root    574 :    26.310567499903790
 Root    575 :    26.319462843399236
 Root    576 :    26.383722559707156
 Root    577 :    26.443773800045626
 Root    578 :    26.519573378178883
 Root    579 :    26.538310548384402
 Root    580 :    26.543401951044508
 Root    581 :    26.544472096389889
 Root    582 :    26.593387247043342
 Root    583 :    26.596500198043337
 Root    584 :    26.682873339148767
 Root    585 :    26.741538477651495
 Root    586 :    26.852063329997375
 Root    587 :    26.869128684043446
 Root    588 :    26.875841959702850
 Root    589 :    26.903518510173623
 Root    590 :    26.929426702419164
 Root    591 :    26.929477254507869
 Root    592 :    26.987613075154989
 Root    593 :    26.999744901590752
 Root    594 :    27.019891795334985
 Root    595 :    27.031627152784097
 Root    596 :    27.032913875538039
 Root    597 :    27.037362016979412
 Root    598 :    27.078350076506325
 Root    599 :    27.082170968223000
 Root    600 :    27.114616755592934
 Root    601 :    27.182585814413120
 Root    602 :    27.216143530360096
 Root    603 :    27.238698702714149
 Root    604 :    27.251964839249172
 Root    605 :    27.269934605873281
 Root    606 :    27.282105293974002
 Root    607 :    27.285289665489454
 Root    608 :    27.299982104446308
 Root    609 :    27.303593445563727
 Root    610 :    27.322667408271201
 Root    611 :    27.344886208877398
 Root    612 :    27.403112255643766
 Root    613 :    27.424151933498944
 Root    614 :    27.458320477406936
 Root    615 :    27.459812962055217
 Root    616 :    27.460116330252621
 Root    617 :    27.489261806548260
 Root    618 :    27.501854693926372
 Root    619 :    27.563493281475356
 Root    620 :    27.580864256938746
 Root    621 :    27.656688558652938
 Root    622 :    27.680144926169451
 Root    623 :    27.685678317271741
 Root    624 :    27.707228453653016
 Root    625 :    27.738332903556568
 Root    626 :    27.746744472084046
 Root    627 :    27.816467030283871
 Root    628 :    27.852434293512736
 Root    629 :    27.956552607142832
 Root    630 :    27.957886523504271
 Root    631 :    27.998972207148746
 Root    632 :    28.031989590257261
 Root    633 :    28.081039118700492
 Root    634 :    28.084622646712916
 Root    635 :    28.147616597016455
 Root    636 :    28.174803031979454
 Root    637 :    28.187529627268024
 Root    638 :    28.189508934515718
 Root    639 :    28.223136259183345
 Root    640 :    28.240203593669786
 Root    641 :    28.260941521082753
 Root    642 :    28.277323645887218
 Root    643 :    28.292547904831071
 Root    644 :    28.297474555063239
 Root    645 :    28.373172546793402
 Root    646 :    28.377705761970592
 Root    647 :    28.384135912677706
 Root    648 :    28.385281430444149
 Root    649 :    28.447691796895015
 Root    650 :    28.486708964156588
 Root    651 :    28.502044617629902
 Root    652 :    28.543370944247954
 Root    653 :    28.564851461789473
 Root    654 :    28.628949770971502
 Root    655 :    28.639121837448808
 Root    656 :    28.680093072757106
 Root    657 :    28.723718657324511
 Root    658 :    28.797036132501876
 Root    659 :    28.802819103059122
 Root    660 :    28.945451676893292
 Root    661 :    28.973487811969900
 Root    662 :    28.995056107180918
 Root    663 :    29.013834014647646
 Root    664 :    29.019676833114950
 Root    665 :    29.087586116553311
 Root    666 :    29.091238710663845
 Root    667 :    29.241097318273447
 Root    668 :    29.281738117848391
 Root    669 :    29.315227649600288
 Root    670 :    29.316372942818681
 Root    671 :    29.344138963089549
 Root    672 :    29.348540385989821
 Root    673 :    29.429258180332845
 Root    674 :    29.447379727869119
 Root    675 :    29.483243863363217
 Root    676 :    29.499464263435097
 Root    677 :    29.518771549780652
 Root    678 :    29.567768202143302
 Root    679 :    29.604566814632733
 Root    680 :    29.622377099539111
 Root    681 :    29.630995293414511
 Root    682 :    29.650983025186001
 Root    683 :    29.705596989989282
 Root    684 :    29.705860105938267
 Root    685 :    29.777508122521073
 Root    686 :    29.811535386009886
 Root    687 :    29.834590030677667
 Root    688 :    29.836401715079642
 Root    689 :    29.860472746421966
 Root    690 :    29.952216835516776
 Root    691 :    29.973954630784810
 Root    692 :    30.074625822822330
 Root    693 :    30.095025117168358
 Root    694 :    30.120117273009377
 Root    695 :    30.123895296517865
 Root    696 :    30.135321828985969
 Root    697 :    30.206797392799576
 Root    698 :    30.398348504025815
 Root    699 :    30.430027766755625
 Root    700 :    30.496874246396498
 Root    701 :    30.502343131239986
 Root    702 :    30.510218874652303
 Root    703 :    30.538726734777256
 Root    704 :    30.564623545399343
 Root    705 :    30.660768216457555
 Root    706 :    30.752753176734949
 Root    707 :    30.752839299486226
 Root    708 :    30.759920382909705
 Root    709 :    30.839190070540692
 Root    710 :    30.866472778910161
 Root    711 :    30.877695351081385
 Root    712 :    30.891890385079474
 Root    713 :    30.901269757191091
 Root    714 :    30.917106287544435
 Root    715 :    30.935004729814551
 Root    716 :    30.941713075936377
 Root    717 :    30.962432781440519
 Root    718 :    30.963287759884537
 Root    719 :    30.971886638824692
 Root    720 :    31.025377707052769
 Root    721 :    31.086762737192483
 Root    722 :    31.091758194174879
 Root    723 :    31.158016273415900
 Root    724 :    31.221809042987459
 Root    725 :    31.243744146250162
 Root    726 :    31.298598286508710
 Root    727 :    31.374805131584672
 Root    728 :    31.413704120720165
 Root    729 :    31.443293332771795
 Root    730 :    31.552757559524910
 Root    731 :    31.566273908643542
 Root    732 :    31.604504814833621
 Root    733 :    31.609908861733427
 Root    734 :    31.645359464641842
 Root    735 :    31.651450475322022
 Root    736 :    31.688811801889720
 Root    737 :    31.697498417870204
 Root    738 :    31.708476850001787
 Root    739 :    31.765495373118569
 Root    740 :    31.776260767988184
 Root    741 :    31.808847715006003
 Root    742 :    31.836886780093057
 Root    743 :    31.853698250766129
 Root    744 :    31.855933192117739
 Root    745 :    31.877670196810922
 Root    746 :    31.893523891537246
 Root    747 :    31.895063690278043
 Root    748 :    31.900049099542372
 Root    749 :    31.908377585284828
 Root    750 :    32.012845913389299
 Root    751 :    32.028133374662907
 Root    752 :    32.080911807192855
 Root    753 :    32.093984850980050
 Root    754 :    32.096414345240419
 Root    755 :    32.139530163683524
 Root    756 :    32.191052203061709
 Root    757 :    32.264893625820058
 Root    758 :    32.336740740240721
 Root    759 :    32.426692845289672
 Root    760 :    32.454032423639369
 Root    761 :    32.484694968725258
 Root    762 :    32.509697243976319
 Root    763 :    32.524917239662457
 Root    764 :    32.611151440559176
 Root    765 :    32.644561780213948
 Root    766 :    32.650897613166876
 Root    767 :    32.680730009128844
 Root    768 :    32.710473223235944
 Root    769 :    32.720698508423226
 Root    770 :    32.784484563117068
 Root    771 :    32.790152910790141
 Root    772 :    32.810864982865411
 Root    773 :    32.858892578242269
 Root    774 :    32.894507509724441
 Root    775 :    32.931694925664281
 Root    776 :    32.940612530466140
 Root    777 :    32.983136207379303
 Root    778 :    32.985167646707325
 Root    779 :    33.015388127302110
 Root    780 :    33.023451685349372
 Root    781 :    33.096758279589039
 Root    782 :    33.173860605116801
 Root    783 :    33.255439873540546
 Root    784 :    33.280698739256906
 Root    785 :    33.303387506223594
 Root    786 :    33.333450327570731
 Root    787 :    33.409905685901798
 Root    788 :    33.574533130240773
 Root    789 :    33.597074085079598
 Root    790 :    33.622399622725339
 Root    791 :    33.625867115283292
 Root    792 :    33.671106559142856
 Root    793 :    33.791783356741952
 Root    794 :    33.918613404272790
 Root    795 :    34.454070587537046
 Root    796 :    34.691440346753431
 Root    797 :    34.766186718544532
 Root    798 :    35.511904918042312
 Root    799 :    36.506086472363542
 Root    800 :    36.665536365946728
 Iteration     2 Dimension  1200 NMult   800 NNew    400
 CISAX will form   400 AO SS matrices at one time.
 NMat=   400 NSing=   400 JSym2X=-1.
 Root      1 not converged, maximum delta is    0.006874372571603
 Root      2 not converged, maximum delta is    0.004311464941410
 Root      3 not converged, maximum delta is    0.008109905946661
 Root      4 not converged, maximum delta is    0.009115699127103
 Root      5 not converged, maximum delta is    0.002825075272555
 Root      6 not converged, maximum delta is    0.005590248321035
 Root      7 not converged, maximum delta is    0.033626503303317
 Root      8 not converged, maximum delta is    0.001661415558913
 Root      9 has converged.
 Root     10 not converged, maximum delta is    0.026007195411574
 Root     11 has converged.
 Root     12 not converged, maximum delta is    0.001044637102086
 Root     13 not converged, maximum delta is    0.003073755708680
 New state     14 was old state     16
 Root     14 not converged, maximum delta is    0.060882741447619
 Root     15 not converged, maximum delta is    0.035156276195889
 New state     16 was old state     14
 Root     16 not converged, maximum delta is    0.001508174140578
 New state     17 was old state     18
 Root     17 not converged, maximum delta is    0.019592464509530
 New state     18 was old state     17
 Root     18 not converged, maximum delta is    0.034726658330967
 Root     19 not converged, maximum delta is    0.048236848147647
 Root     20 not converged, maximum delta is    0.001878372409855
 Root     21 not converged, maximum delta is    0.005560530182909
 Root     22 not converged, maximum delta is    0.006457209624955
 Root     23 not converged, maximum delta is    0.003967414835719
 Root     24 has converged.
 Root     25 not converged, maximum delta is    0.003593608936182
 Root     26 not converged, maximum delta is    0.004396710176698
 Root     27 not converged, maximum delta is    0.002873841839771
 Root     28 not converged, maximum delta is    0.014219665005474
 Root     29 not converged, maximum delta is    0.003133083863811
 Root     30 has converged.
 Root     31 not converged, maximum delta is    0.022293822147650
 Root     32 not converged, maximum delta is    0.012461086492580
 Root     33 not converged, maximum delta is    0.015315978949552
 Root     34 not converged, maximum delta is    0.015231473013889
 Root     35 not converged, maximum delta is    0.005299083961377
 Root     36 not converged, maximum delta is    0.001752911892961
 New state     37 was old state     38
 Root     37 not converged, maximum delta is    0.008283618585571
 New state     38 was old state     37
 Root     38 not converged, maximum delta is    0.019059061610944
 Root     39 not converged, maximum delta is    0.001155393337937
 Root     40 not converged, maximum delta is    0.050504252865276
 New state     41 was old state     42
 Root     41 not converged, maximum delta is    0.055358115072552
 New state     42 was old state     41
 Root     42 not converged, maximum delta is    0.005009259223620
 Root     43 not converged, maximum delta is    0.003029496208258
 New state     44 was old state     45
 Root     44 not converged, maximum delta is    0.030969615872743
 New state     45 was old state     44
 Root     45 not converged, maximum delta is    0.002714163417896
 New state     46 was old state     47
 Root     46 not converged, maximum delta is    0.023730235583707
 New state     47 was old state     46
 Root     47 not converged, maximum delta is    0.001476390397471
 Root     48 not converged, maximum delta is    0.021939431265066
 Root     49 has converged.
 Root     50 not converged, maximum delta is    0.235699703327897
 Root     51 not converged, maximum delta is    0.207339153077916
 Root     52 not converged, maximum delta is    0.056183741669027
 Root     53 not converged, maximum delta is    0.010287404638783
 Root     54 not converged, maximum delta is    0.008867295596245
 Root     55 not converged, maximum delta is    0.005928268758781
 Root     56 not converged, maximum delta is    0.011486705536662
[...]
      2   0.377620D+00  0.000000D+00 -0.144181D-02  0.352570D+00 -0.304988D-01
      3   0.118408D-01  0.000000D+00 -0.541655D-04  0.109959D-01  0.974677D+00
      4   0.000000D+00  0.847124D-04  0.000000D+00  0.000000D+00  0.000000D+00
      5  -0.178394D+00  0.000000D+00  0.664064D-03 -0.167685D+00  0.145269D-01
      6  -0.559404D-02  0.000000D+00  0.250441D-04 -0.522934D-02 -0.464266D+00
      7   0.000000D+00 -0.399085D-04  0.000000D+00  0.000000D+00  0.000000D+00
      8   0.000000D+00  0.195389D-01  0.000000D+00  0.000000D+00  0.000000D+00
      9   0.000000D+00 -0.621939D+00  0.000000D+00  0.000000D+00  0.000000D+00
     10   0.000000D+00  0.000000D+00 -0.632394D-04 -0.757935D-05  0.298746D-02
     11  -0.143375D-03  0.000000D+00  0.106159D+01  0.460839D-03  0.667851D-03
     12   0.158416D-02  0.000000D+00  0.295789D+00  0.398445D-03 -0.655721D-03
     13   0.444241D-04  0.000000D+00  0.102157D+00 -0.177129D-03  0.180416D-05
     14  -0.547361D-04  0.000000D+00  0.239803D-01 -0.530115D-05 -0.104588D-01
     15   0.000000D+00  0.116192D+01  0.000000D+00  0.000000D+00  0.000000D+00
     16   0.000000D+00  0.364101D-01  0.000000D+00  0.000000D+00  0.000000D+00
               136           137           138           139           140 
      1  -0.263908D+03 -0.263906D+03 -0.263905D+03 -0.263905D+03 -0.263898D+03
      2  -0.316529D-03  0.000000D+00  0.000000D+00 -0.117119D+00  0.000000D+00
      3   0.101633D-01  0.000000D+00  0.000000D+00 -0.369690D-02  0.000000D+00
      4   0.000000D+00  0.325607D+00  0.000000D+00  0.000000D+00 -0.185041D-05
      5   0.150922D-03  0.000000D+00  0.000000D+00  0.536769D-01  0.000000D+00
      6  -0.484648D-02  0.000000D+00  0.000000D+00  0.169509D-02  0.000000D+00
      7   0.000000D+00 -0.149966D+00  0.000000D+00  0.000000D+00  0.000000D+00
      8   0.000000D+00 -0.844176D-05  0.704223D+00  0.000000D+00 -0.106046D+01
      9   0.000000D+00  0.273112D-03  0.220489D-01  0.000000D+00 -0.331171D-01
     10   0.278953D-01  0.000000D+00  0.000000D+00  0.191107D-05  0.000000D+00
     11  -0.559258D-01  0.000000D+00  0.000000D+00  0.323642D-03  0.000000D+00
     12   0.559104D-01  0.000000D+00  0.000000D+00 -0.184869D-02  0.000000D+00
     13   0.164837D-05  0.000000D+00  0.000000D+00  0.790605D-03  0.000000D+00
     14   0.892331D+00  0.000000D+00  0.000000D+00  0.686564D-04  0.000000D+00
     15   0.000000D+00 -0.515706D-03  0.279671D-02  0.000000D+00  0.200687D-01
     16   0.000000D+00 -0.181704D-04 -0.894633D-01  0.000000D+00 -0.644050D+00
               141           142           143           144           145 
      1  -0.263898D+03 -0.263897D+03 -0.263897D+03 -0.263896D+03 -0.263896D+03
      2  -0.272697D+00 -0.963700D-03  0.000000D+00  0.670946D-04  0.860724D-01
      3  -0.854581D-02  0.285713D-01  0.000000D+00 -0.211501D-02  0.272509D-02
      4   0.000000D+00  0.000000D+00  0.196951D-04  0.000000D+00  0.000000D+00
      5   0.129191D+00  0.777543D-04  0.000000D+00 -0.320863D-04 -0.409526D-01
      6   0.404747D-02 -0.142434D-02  0.000000D+00  0.101117D-02 -0.129195D-02
      7   0.000000D+00  0.000000D+00 -0.969839D-05  0.000000D+00  0.000000D+00
      8   0.000000D+00  0.000000D+00  0.100156D-02  0.000000D+00  0.000000D+00
      9   0.000000D+00  0.000000D+00  0.312075D-04  0.000000D+00  0.000000D+00
     10   0.263214D-05  0.419534D-03  0.000000D+00  0.583324D+00 -0.130849D-05
     11   0.203572D-03 -0.890842D-04  0.000000D+00 -0.515025D-01  0.594493D-03
     12   0.676395D-03  0.891410D-04  0.000000D+00  0.514829D-01 -0.173512D-02
     13   0.281022D-03  0.000000D+00  0.000000D+00  0.306926D-05  0.261510D-03
     14  -0.121922D-04  0.140017D-02  0.000000D+00  0.821819D+00  0.697097D-04
     15   0.000000D+00  0.000000D+00 -0.135676D-04  0.000000D+00  0.000000D+00
     16   0.000000D+00  0.000000D+00  0.430148D-03  0.000000D+00  0.000000D+00
               146           147           148           149           150 
      1  -0.263896D+03 -0.263894D+03 -0.263893D+03 -0.263892D+03 -0.263891D+03
      2   0.000000D+00  0.000000D+00  0.140334D-02  0.000000D+00  0.489463D-02
      3   0.000000D+00  0.000000D+00 -0.466991D-01  0.000000D+00 -0.156612D+00
      4   0.248118D-03  0.120919D+00  0.000000D+00  0.137793D-05  0.000000D+00
      5   0.000000D+00  0.000000D+00 -0.550618D-03  0.000000D+00 -0.230714D-02
      6   0.000000D+00  0.000000D+00  0.185141D-01  0.000000D+00  0.738187D-01
      7  -0.127450D-03 -0.529973D-01  0.000000D+00  0.000000D+00  0.000000D+00
      8  -0.683132D-04 -0.172569D-04  0.000000D+00  0.128875D+00  0.000000D+00
      9  -0.345989D-02  0.177659D-03  0.000000D+00  0.404317D-02  0.000000D+00
     10   0.000000D+00  0.000000D+00  0.170449D-02  0.000000D+00  0.448991D-03
     11   0.000000D+00  0.000000D+00 -0.673532D-04  0.000000D+00 -0.188826D-04
     12   0.000000D+00  0.000000D+00  0.648794D-04  0.000000D+00  0.255571D-04
     13   0.000000D+00  0.000000D+00  0.000000D+00  0.000000D+00  0.122789D-05
     14   0.000000D+00  0.000000D+00  0.104639D-02  0.000000D+00  0.351735D-03
     15   0.195651D+00 -0.881834D-03  0.000000D+00  0.491287D-02  0.000000D+00
     16   0.600356D-02 -0.240982D-04  0.000000D+00 -0.159318D+00  0.000000D+00
               151           152           153           154           155 
      1  -0.263891D+03 -0.263890D+03 -0.263888D+03 -0.263887D+03 -0.263887D+03
      2   0.638789D-02  0.224725D-03  0.000000D+00 -0.326937D+00  0.000000D+00
      3  -0.204821D+00  0.553188D-05  0.000000D+00 -0.101486D-01  0.000000D+00
      4   0.000000D+00  0.000000D+00  0.472233D+00  0.000000D+00  0.430942D-04
      5  -0.323342D-02 -0.998138D-04  0.000000D+00  0.160839D+00  0.000000D+00
      6   0.103720D+00 -0.237812D-05  0.000000D+00  0.499034D-02  0.000000D+00
      7   0.000000D+00  0.000000D+00 -0.221921D+00  0.000000D+00 -0.242614D-04
      8   0.000000D+00  0.000000D+00 -0.277061D-05  0.000000D+00  0.514110D-02
      9   0.000000D+00  0.000000D+00  0.988973D-04  0.000000D+00 -0.166419D+00
     10  -0.199370D-02  0.532605D-04  0.000000D+00  0.667054D-05  0.000000D+00
     11   0.786445D-04 -0.870738D+00  0.000000D+00  0.422206D-02  0.000000D+00
     12  -0.733075D-04 -0.776967D+00  0.000000D+00  0.366459D-02  0.000000D+00
     13   0.112064D-05 -0.222270D+00  0.000000D+00 -0.170578D-03  0.000000D+00
     14  -0.122731D-02 -0.292437D-02  0.000000D+00  0.188686D-04  0.000000D+00
     15   0.000000D+00  0.000000D+00 -0.537008D-03  0.000000D+00 -0.404743D-01
     16   0.000000D+00  0.000000D+00 -0.167427D-04  0.000000D+00 -0.129598D-02
               156           157           158           159           160 
      1  -0.263885D+03 -0.263884D+03 -0.263884D+03 -0.263883D+03 -0.263882D+03
      2  -0.902015D-02 -0.635986D-03 -0.131572D-03  0.000000D+00 -0.484297D+00
      3   0.291898D+00 -0.203675D-04  0.390811D-02  0.000000D+00 -0.151422D-01
      4   0.000000D+00  0.000000D+00  0.000000D+00 -0.548278D-03  0.000000D+00
      5   0.496103D-02  0.311389D-03  0.688881D-04  0.000000D+00  0.244438D+00
      6  -0.160363D+00  0.997172D-05 -0.205118D-02  0.000000D+00  0.764069D-02
      7   0.000000D+00  0.000000D+00  0.000000D+00  0.260756D-03  0.000000D+00
      8   0.000000D+00  0.000000D+00  0.000000D+00 -0.113220D-01  0.000000D+00
      9   0.000000D+00  0.000000D+00  0.000000D+00  0.362656D+00  0.000000D+00
     10   0.163363D-01  0.523191D-03 -0.273204D+01  0.000000D+00  0.289379D-04
     11  -0.159531D-03 -0.171235D+00  0.321856D-01  0.000000D+00 -0.255744D-02
     12   0.153141D-03 -0.678352D-03 -0.323152D-01  0.000000D+00  0.227694D-02
     13   0.000000D+00  0.695815D-01 -0.228062D-04  0.000000D+00 -0.848937D-03
     14   0.247297D-02 -0.525459D-02 -0.516512D+00  0.000000D+00 -0.145733D-03
     15   0.000000D+00  0.000000D+00  0.000000D+00 -0.597114D+00  0.000000D+00
     16   0.000000D+00  0.000000D+00  0.000000D+00 -0.186659D-01  0.000000D+00
               161           162           163           164           165 
      1  -0.263881D+03 -0.263880D+03 -0.263879D+03 -0.263878D+03 -0.263877D+03
      2  -0.793139D-03  0.413410D-05 -0.815891D-03  0.000000D+00  0.000000D+00
      3  -0.268605D-04 -0.129870D-03 -0.256477D-04  0.000000D+00  0.000000D+00
      4   0.000000D+00  0.000000D+00  0.000000D+00  0.000000D+00  0.377510D-04
      5   0.394531D-03 -0.183205D-05  0.400489D-03  0.000000D+00  0.000000D+00
      6   0.133268D-04  0.575780D-04  0.125349D-04  0.000000D+00  0.000000D+00
      7   0.000000D+00  0.000000D+00  0.000000D+00  0.000000D+00 -0.195937D-04
      8   0.000000D+00  0.000000D+00  0.000000D+00  0.171853D+00  0.171631D-02
      9   0.000000D+00  0.000000D+00  0.000000D+00  0.537371D-02  0.543549D-04
     10  -0.210886D-03  0.178849D+00 -0.380140D-03  0.000000D+00  0.000000D+00
     11  -0.807391D+00 -0.130300D-02  0.116767D+01  0.000000D+00  0.000000D+00
     12  -0.702754D+00  0.170511D-02 -0.265882D+00  0.000000D+00  0.000000D+00
     13  -0.190042D+00  0.832800D-04  0.240112D+00  0.000000D+00  0.000000D+00
     14  -0.332383D-02  0.259762D-01  0.448098D-01  0.000000D+00  0.000000D+00
     15   0.000000D+00  0.000000D+00  0.000000D+00 -0.649545D-02  0.451998D-04
     16   0.000000D+00  0.000000D+00  0.000000D+00  0.207748D+00 -0.145709D-02
               166           167           168           169           170 
      1  -0.263877D+03 -0.263877D+03 -0.263876D+03 -0.263875D+03 -0.263874D+03
      2   0.900573D-03  0.129027D-01  0.000000D+00  0.750069D+00  0.153864D-01
      3   0.149803D-04 -0.412297D+00  0.000000D+00  0.232975D-01 -0.508967D+00
      4   0.000000D+00  0.000000D+00 -0.167377D+00  0.000000D+00  0.000000D+00
      5  -0.481125D-03 -0.649997D-02  0.000000D+00 -0.393651D+00 -0.775961D-02
      6  -0.840881D-05  0.207689D+00  0.000000D+00 -0.122320D-01  0.257048D+00
      7   0.000000D+00  0.000000D+00  0.849807D-01  0.000000D+00  0.000000D+00
      8   0.000000D+00  0.000000D+00  0.133754D-04  0.000000D+00  0.000000D+00
      9   0.000000D+00  0.000000D+00 -0.428443D-03  0.000000D+00  0.000000D+00
     10  -0.117975D-03 -0.268033D-02  0.000000D+00 -0.321416D-05  0.123576D-02
     11   0.758452D+00 -0.588104D-04  0.000000D+00 -0.217834D-02 -0.142822D-03
     12   0.705067D+00  0.138422D-04  0.000000D+00  0.144307D-03  0.147391D-03
     13   0.320293D+00 -0.982341D-05  0.000000D+00 -0.600089D-03  0.119363D-05
     14   0.161701D-02  0.574807D-03  0.000000D+00 -0.734814D-04  0.232957D-02
     15   0.000000D+00  0.000000D+00  0.756221D-03  0.000000D+00  0.000000D+00
     16   0.000000D+00  0.000000D+00  0.237251D-04  0.000000D+00  0.000000D+00
               171           172           173           174           175 
      1  -0.263873D+03 -0.263873D+03 -0.263873D+03 -0.263872D+03 -0.263868D+03
      2  -0.198998D-02 -0.156976D-01  0.457700D+00  0.000000D+00  0.587828D-05
      3   0.619853D-01  0.488447D+00  0.143990D-01  0.000000D+00 -0.252533D-05
      4   0.000000D+00  0.000000D+00  0.000000D+00  0.000000D+00  0.000000D+00
      5   0.102718D-02  0.810578D-02 -0.245197D+00  0.000000D+00  0.308312D-05
      6  -0.319788D-01 -0.252087D+00 -0.771324D-02  0.000000D+00  0.146396D-05
      7   0.000000D+00  0.000000D+00  0.000000D+00  0.000000D+00  0.000000D+00
      8   0.000000D+00  0.000000D+00  0.000000D+00  0.493569D+00  0.000000D+00
      9   0.000000D+00  0.000000D+00  0.000000D+00  0.153757D-01  0.000000D+00
     10   0.161845D+00 -0.197635D-01 -0.584086D-05  0.000000D+00 -0.107059D-05
     11  -0.499651D-01  0.625942D-02 -0.155933D-02  0.000000D+00  0.953929D+00
     12   0.500684D-01 -0.627502D-02 -0.143790D-02  0.000000D+00 -0.155450D+01
     13  -0.186984D-05  0.000000D+00 -0.371327D-03  0.000000D+00  0.590165D-01
     14   0.797901D+00 -0.999798D-01 -0.438277D-05  0.000000D+00  0.786108D-01
     15   0.000000D+00  0.000000D+00  0.000000D+00 -0.243515D-01  0.000000D+00
     16   0.000000D+00  0.000000D+00  0.000000D+00  0.779620D+00  0.000000D+00
               176           177           178           179           180 
      1  -0.263868D+03 -0.263867D+03 -0.263864D+03 -0.263862D+03 -0.263861D+03
      2  -0.143071D-01  0.000000D+00  0.624892D-03  0.000000D+00  0.000000D+00
      3   0.457469D+00  0.000000D+00  0.190904D-04  0.000000D+00  0.000000D+00
      4   0.000000D+00  0.388119D-03  0.000000D+00  0.000000D+00  0.128796D+00
      5   0.735364D-02  0.000000D+00  0.312368D-02  0.000000D+00  0.000000D+00
      6  -0.235127D+00  0.000000D+00  0.974542D-04  0.000000D+00  0.000000D+00
      7   0.000000D+00 -0.187339D-03  0.000000D+00  0.000000D+00 -0.706796D-01
      8   0.000000D+00 -0.541585D-02  0.000000D+00 -0.136404D+00  0.000000D+00
      9   0.000000D+00  0.172877D+00  0.000000D+00 -0.424977D-02  0.753907D-04
     10   0.102016D-02  0.000000D+00 -0.515430D-05  0.000000D+00  0.000000D+00
     11  -0.533756D-04  0.000000D+00 -0.173679D-02  0.000000D+00  0.000000D+00
     12   0.531559D-04  0.000000D+00  0.162743D-02  0.000000D+00  0.000000D+00
     13   0.000000D+00  0.000000D+00  0.481392D-04  0.000000D+00  0.000000D+00
     14   0.914446D-03  0.000000D+00 -0.108418D-03  0.000000D+00  0.000000D+00
     15   0.000000D+00 -0.281032D+00  0.000000D+00  0.893087D-02  0.650407D-04
     16   0.000000D+00 -0.882302D-02  0.000000D+00 -0.285849D+00  0.333592D-05
               181           182           183           184           185 
      1  -0.263861D+03 -0.263860D+03 -0.263859D+03 -0.263857D+03 -0.263857D+03
      2   0.293989D-05  0.000000D+00  0.538077D-04 -0.297749D-01  0.000000D+00
      3   0.232569D-04  0.000000D+00  0.132063D-05 -0.926522D-03  0.000000D+00
      4   0.000000D+00  0.337093D-05  0.000000D+00  0.000000D+00  0.278178D-05
      5  -0.140547D-05  0.000000D+00 -0.173526D-04  0.233562D-01  0.000000D+00
      6  -0.161415D-04  0.000000D+00  0.000000D+00  0.728079D-03  0.000000D+00
      7   0.000000D+00 -0.107736D-05  0.000000D+00  0.000000D+00 -0.131439D-05
      8   0.000000D+00  0.647498D-03  0.000000D+00  0.000000D+00 -0.187308D+00
      9   0.000000D+00  0.199147D-04  0.000000D+00  0.000000D+00 -0.588329D-02
     10  -0.311833D+00  0.000000D+00  0.207711D-04  0.662597D-05  0.000000D+00
     11  -0.227125D-01  0.000000D+00  0.100499D+00 -0.234669D-02  0.000000D+00
     12   0.227125D-01  0.000000D+00  0.148221D+01  0.478500D-03  0.000000D+00
     13  -0.186294D-05  0.000000D+00  0.244308D-01  0.170651D-03  0.000000D+00
     14   0.362612D+00  0.000000D+00 -0.432881D-01 -0.854032D-04  0.000000D+00
     15   0.000000D+00 -0.752571D-05  0.000000D+00  0.000000D+00 -0.118713D-01
     16   0.000000D+00  0.235643D-03  0.000000D+00  0.000000D+00  0.376586D+00
               186           187           188           189           190 
      1  -0.263855D+03 -0.263855D+03 -0.263854D+03 -0.263854D+03 -0.263852D+03
      2  -0.269674D+00  0.000000D+00  0.000000D+00 -0.461801D-04  0.000000D+00
      3  -0.846201D-02  0.000000D+00  0.000000D+00  0.667842D-03  0.000000D+00
      4   0.000000D+00 -0.248043D+00 -0.425884D-02  0.000000D+00  0.000000D+00
      5   0.143461D+00  0.000000D+00  0.000000D+00  0.243617D-04  0.000000D+00
      6   0.450162D-02  0.000000D+00  0.000000D+00 -0.350255D-03  0.000000D+00
      7   0.000000D+00  0.114354D+00  0.197410D-02  0.000000D+00  0.000000D+00
      8   0.000000D+00  0.819762D-04 -0.458916D-02  0.000000D+00  0.513741D+00
      9   0.000000D+00 -0.271765D-02  0.150395D+00  0.000000D+00  0.160249D-01
     10  -0.457062D-04  0.000000D+00  0.000000D+00  0.994524D+00  0.000000D+00
     11  -0.625291D-03  0.000000D+00  0.000000D+00 -0.509449D-01  0.000000D+00
     12   0.602874D-03  0.000000D+00  0.000000D+00  0.509725D-01  0.000000D+00
     13  -0.140711D-04  0.000000D+00  0.000000D+00 -0.159065D-05  0.000000D+00
     14  -0.691704D-04  0.000000D+00  0.000000D+00  0.813478D+00  0.000000D+00
     15   0.000000D+00 -0.516417D-02  0.307325D+00  0.000000D+00 -0.290389D-01
     16   0.000000D+00 -0.162577D-03  0.100760D-01  0.000000D+00  0.925773D+00
               191           192           193           194           195 
      1  -0.263851D+03 -0.263850D+03 -0.263849D+03 -0.263848D+03 -0.263848D+03
      2  -0.707656D+00  0.000000D+00  0.710821D-03  0.387578D-04  0.000000D+00
      3  -0.221529D-01  0.000000D+00  0.237082D-04 -0.519114D-03  0.000000D+00
      4   0.000000D+00  0.352564D-05  0.000000D+00  0.000000D+00 -0.415748D-05
      5   0.382237D+00  0.000000D+00 -0.385507D-03 -0.206893D-04  0.000000D+00
      6   0.119658D-01  0.000000D+00 -0.128516D-04  0.271736D-03  0.000000D+00
      7   0.000000D+00 -0.197534D-05  0.000000D+00  0.000000D+00  0.278511D-05
      8   0.000000D+00  0.262209D-02  0.000000D+00  0.000000D+00 -0.126773D-02
      9   0.000000D+00  0.814966D-04  0.000000D+00  0.000000D+00 -0.403472D-04
     10  -0.193952D-04  0.000000D+00 -0.865519D-05 -0.432039D+00  0.000000D+00
     11   0.710543D-04  0.000000D+00  0.750045D-01  0.699634D-01  0.000000D+00
     12  -0.348267D-03  0.000000D+00 -0.129632D+01 -0.700305D-01  0.000000D+00
     13  -0.373057D-03  0.000000D+00 -0.316225D+00 -0.144039D-04  0.000000D+00
     14  -0.414242D-05  0.000000D+00  0.430251D-01 -0.111621D+01  0.000000D+00
     15   0.000000D+00 -0.164541D-03  0.000000D+00  0.000000D+00  0.592979D-04
     16   0.000000D+00  0.514945D-02  0.000000D+00  0.000000D+00 -0.193632D-02
               196           197           198           199           200 
      1  -0.263848D+03 -0.263848D+03 -0.263847D+03 -0.263847D+03 -0.263846D+03
      2   0.219569D+00 -0.228957D-01  0.000000D+00  0.000000D+00 -0.265453D-01
      3   0.690075D-02  0.730808D+00  0.000000D+00  0.000000D+00 -0.780825D-03
      4   0.000000D+00  0.000000D+00  0.313584D+00 -0.138070D-04  0.000000D+00
      5  -0.118477D+00  0.121830D-01  0.000000D+00  0.000000D+00  0.110640D-01
      6  -0.372366D-02 -0.388860D+00  0.000000D+00  0.000000D+00  0.319066D-03
      7   0.000000D+00  0.000000D+00 -0.170453D+00  0.732373D-05  0.000000D+00
      8   0.000000D+00  0.000000D+00  0.803030D-05 -0.863628D-03  0.000000D+00
      9   0.000000D+00  0.000000D+00 -0.243519D-03 -0.273457D-04  0.000000D+00
     10   0.366118D-04  0.654733D-04  0.000000D+00  0.000000D+00  0.000000D+00
     11  -0.132790D-03  0.180332D-03  0.000000D+00  0.000000D+00  0.873210D-03
     12   0.270668D-02 -0.174480D-03  0.000000D+00  0.000000D+00  0.359348D-03
     13  -0.306941D-05  0.112121D-05  0.000000D+00  0.000000D+00 -0.146320D-03
     14   0.754217D-05 -0.287769D-02  0.000000D+00  0.000000D+00  0.296522D-04
     15   0.000000D+00  0.000000D+00  0.406611D-03  0.470022D-04  0.000000D+00
     16   0.000000D+00  0.000000D+00  0.124545D-04 -0.151811D-02  0.000000D+00

 Test job not archived.
 1\1\GINC-CPN-H22-04\SP\RB3LYP TD-FC\6-311++G(d,p)\C4H4N2\AKRAMER9\07-A
 ug-2025\0\\#P B3LYP/6-311++G(d,p) TD=(NStates=200) IOp(9/40=5) geom=ch
 eck gfinput\\Pyraz_cd_300_full_ext\\0,1\C,0,2.3027359991,3.2670046817,
 0.\N,0,3.0407980238,2.1555773029,0.\C,0,2.3736908902,1.0001645518,0.\C
 ,0,0.9022968092,3.2231054414,0.\C,0,0.9732479595,0.9563923768,0.\N,0,0
 .2349975184,2.0677511219,0.\H,0,2.8358971428,4.2263379648,0.\H,0,2.965
 8065412,0.0760540894,0.\H,0,0.441162817,-0.0029236039,0.\H,0,0.3112562
 987,4.1472660734,0.\\Version=ES64L-G16RevC.02\State=1-A'\HF=-264.38694
 31\RMSD=3.266e-09\PG=CS [SG(C4H4N2)]\\@


 ... I FELL INTO A REVERIE ... THE ATOMS WERE GAMBOLING BEFORE MY EYES
 ... I SAW HOW TWO SMALL ONES UNITED TO FORM A PAIR;
 HOW THE LARGER ONES SEIZED TWO OF THE SMALLER ONES;
 HOW STILL LARGER ONES KEPT HOLD OF THREE OR FOUR
 SMALLER ONES ... I SAW HOW THE LARGER ONES FORMED A CHAIN ...
 THIS WAS THE ORIGIN OF THE STRUCTURE THEORY.

                                   -- C.F.KEKULE VON STRADONITZ
 Job cpu time:       0 days  0 hours 24 minutes  8.6 seconds.
 Elapsed time:       0 days  0 hours  6 minutes 11.2 seconds.
 File lengths (MBytes):  RWF=   3684 Int=      0 D2E=      0 Chk=    153 Scr=      1
 Normal termination of Gaussian 16 at Thu Aug  7 19:13:32 2025.
